 running on   10 total cores
 distrk:  each k-point on   10 cores,    1 groups
 distr:  one band on    1 cores,   10 groups
 using from now: INCAR     
 vasp.5.4.4.18Apr17-6-g9f103f2a35 (build Jan 14 2022 15:04:31) complex          
  
 POSCAR found type information on POSCAR  C  N  H 
 POSCAR found :  3 types and       5 ions
 scaLAPACK will be used

 ----------------------------------------------------------------------------- 
|                                                                             |
|           W    W    AA    RRRRR   N    N  II  N    N   GGGG   !!!           |
|           W    W   A  A   R    R  NN   N  II  NN   N  G    G  !!!           |
|           W    W  A    A  R    R  N N  N  II  N N  N  G       !!!           |
|           W WW W  AAAAAA  RRRRR   N  N N  II  N  N N  G  GGG   !            |
|           WW  WW  A    A  R   R   N   NN  II  N   NN  G    G                |
|           W    W  A    A  R    R  N    N  II  N    N   GGGG   !!!           |
|                                                                             |
|      For optimal performance we recommend to set                            |
|        NCORE= 4 - approx SQRT( number of cores)                             |
|      NCORE specifies how many cores store one orbital (NPAR=cpu/NCORE).     |
|      This setting can  greatly improve the performance of VASP for DFT.     |
|      The default,   NCORE=1            might be grossly inefficient         |
|      on modern multi-core architectures or massively parallel machines.     |
|      Do your own testing !!!!                                               |
|      Unfortunately you need to use the default for GW and RPA calculations. |
|      (for HF NCORE is supported but not extensively tested yet)             |
|                                                                             |
 ----------------------------------------------------------------------------- 

 LDA part: xc-table for Pade appr. of Perdew
 POSCAR found type information on POSCAR  C  N  H 
 POSCAR found :  3 types and       5 ions


 VERY BAD NEWS! internal error in subroutine IBZKPT:
 Reciprocal lattice and k-lattice belong to different class of lattices. Often results are still useful...       5


 VERY BAD NEWS! internal error in subroutine IBZKPT:
 Reciprocal lattice and k-lattice belong to different class of lattices. Often results are still useful...       5


 VERY BAD NEWS! internal error in subroutine IBZKPT:
 Reciprocal lattice and k-lattice belong to different class of lattices. Often results are still useful...       5


 VERY BAD NEWS! internal error in subroutine IBZKPT:
 Reciprocal lattice and k-lattice belong to different class of lattices. Often results are still useful...       5


 VERY BAD NEWS! internal error in subroutine IBZKPT:
 Reciprocal lattice and k-lattice belong to different class of lattices. Often results are still useful...       5


 VERY BAD NEWS! internal error in subroutine IBZKPT:
 Reciprocal lattice and k-lattice belong to different class of lattices. Often results are still useful...       5


 VERY BAD NEWS! internal error in subroutine IBZKPT:
 Reciprocal lattice and k-lattice belong to different class of lattices. Often results are still useful...       5


 VERY BAD NEWS! internal error in subroutine IBZKPT:
 Reciprocal lattice and k-lattice belong to different class of lattices. Often results are still useful...       5


 VERY BAD NEWS! internal error in subroutine IBZKPT:
 Reciprocal lattice and k-lattice belong to different class of lattices. Often results are still useful...       5


 VERY BAD NEWS! internal error in subroutine IBZKPT:
 Reciprocal lattice and k-lattice belong to different class of lattices. Often results are still useful...       5
 POSCAR, INCAR and KPOINTS ok, starting setup
 FFT: planning ...
 WAVECAR not read
 WARNING: random wavefunctions but no delay for mixing, default for NELMDL
 entering main loop
       N       E                     dE             d eps       ncg     rms          rms(c)
DAV:   1     0.547291075706E+02    0.54729E+02   -0.30135E+03   150   0.516E+02
DAV:   2    -0.201614257585E+02   -0.74891E+02   -0.74456E+02   180   0.125E+02
DAV:   3    -0.302144442736E+02   -0.10053E+02   -0.10053E+02   140   0.573E+01
DAV:   4    -0.304093019682E+02   -0.19486E+00   -0.19486E+00   110   0.745E+00
DAV:   5    -0.304113722730E+02   -0.20703E-02   -0.20703E-02   150   0.753E-01    0.959E+00
DAV:   6    -0.279789347717E+02    0.24324E+01   -0.74683E+00   120   0.178E+01    0.510E+00
DAV:   7    -0.275221499804E+02    0.45678E+00   -0.12977E+00   150   0.710E+00    0.260E+00
DAV:   8    -0.274023074107E+02    0.11984E+00   -0.22144E-01   170   0.298E+00    0.956E-01
DAV:   9    -0.273811009487E+02    0.21206E-01   -0.25118E-02   160   0.134E+00    0.207E-01
DAV:  10    -0.273806380552E+02    0.46289E-03   -0.42139E-03   150   0.480E-01    0.116E-01
DAV:  11    -0.273844800838E+02   -0.38420E-02   -0.44581E-03   140   0.420E-01    0.689E-02
DAV:  12    -0.273897518018E+02   -0.52717E-02   -0.12862E-03   120   0.212E-01    0.358E-02
DAV:  13    -0.273950207639E+02   -0.52690E-02   -0.10549E-03   110   0.173E-01    0.268E-02
DAV:  14    -0.273974047859E+02   -0.23840E-02   -0.37845E-04   160   0.104E-01    0.127E-02
DAV:  15    -0.273984423526E+02   -0.10376E-02   -0.13246E-04   160   0.616E-02    0.759E-03
DAV:  16    -0.273987942974E+02   -0.35194E-03   -0.24162E-05   170   0.266E-02    0.466E-03
DAV:  17    -0.273989560329E+02   -0.16174E-03   -0.10433E-05   160   0.168E-02    0.166E-03
DAV:  18    -0.273990013281E+02   -0.45295E-04   -0.27865E-06   150   0.853E-03    0.114E-03
DAV:  19    -0.273990082968E+02   -0.69686E-05   -0.33854E-07   170   0.332E-03    0.398E-04
DAV:  20    -0.273990104288E+02   -0.21320E-05   -0.83161E-08   120   0.163E-03    0.264E-04
DAV:  21    -0.273990113041E+02   -0.87535E-06   -0.36850E-08   110   0.964E-04
   1 F= -.27399011E+02 E0= -.27399011E+02  d E =-.199297E-13
 Finite differences POTIM= 0.02000 DOF=  15


 VERY BAD NEWS! internal error in subroutine IBZKPT:
 Reciprocal lattice and k-lattice belong to different class of lattices. Often results are still useful...       5


 VERY BAD NEWS! internal error in subroutine IBZKPT:
 Reciprocal lattice and k-lattice belong to different class of lattices. Often results are still useful...       5


 VERY BAD NEWS! internal error in subroutine IBZKPT:
 Reciprocal lattice and k-lattice belong to different class of lattices. Often results are still useful...       5


 VERY BAD NEWS! internal error in subroutine IBZKPT:
 Reciprocal lattice and k-lattice belong to different class of lattices. Often results are still useful...       5


 VERY BAD NEWS! internal error in subroutine IBZKPT:
 Reciprocal lattice and k-lattice belong to different class of lattices. Often results are still useful...       5


 VERY BAD NEWS! internal error in subroutine IBZKPT:
 Reciprocal lattice and k-lattice belong to different class of lattices. Often results are still useful...       5


 VERY BAD NEWS! internal error in subroutine IBZKPT:
 Reciprocal lattice and k-lattice belong to different class of lattices. Often results are still useful...       5


 VERY BAD NEWS! internal error in subroutine IBZKPT:
 Reciprocal lattice and k-lattice belong to different class of lattices. Often results are still useful...       5


 VERY BAD NEWS! internal error in subroutine IBZKPT:
 Reciprocal lattice and k-lattice belong to different class of lattices. Often results are still useful...       5


 VERY BAD NEWS! internal error in subroutine IBZKPT:
 Reciprocal lattice and k-lattice belong to different class of lattices. Often results are still useful...       5
 bond charge predicted
       N       E                     dE             d eps       ncg     rms          rms(c)
DAV:   1    -0.273874718624E+02    0.11539E-01   -0.97141E-01   100   0.926E+00    0.231E-01
DAV:   2    -0.273878635134E+02   -0.39165E-03   -0.10279E-02   130   0.937E-01    0.147E-01
DAV:   3    -0.273876923701E+02    0.17114E-03   -0.77845E-04   160   0.255E-01    0.599E-02
DAV:   4    -0.273876738155E+02    0.18555E-04   -0.19528E-04   140   0.110E-01    0.218E-02
DAV:   5    -0.273876748828E+02   -0.10673E-05   -0.29723E-05   130   0.438E-02    0.651E-03
DAV:   6    -0.273876874337E+02   -0.12551E-04   -0.50921E-06   100   0.186E-02    0.379E-03
DAV:   7    -0.273877089406E+02   -0.21507E-04   -0.41628E-06   120   0.134E-02    0.168E-03
DAV:   8    -0.273877268142E+02   -0.17874E-04   -0.15156E-06   140   0.656E-03    0.110E-03
DAV:   9    -0.273877476697E+02   -0.20855E-04   -0.27768E-06   110   0.636E-03    0.660E-04
DAV:  10    -0.273877553490E+02   -0.76793E-05   -0.54581E-07   170   0.304E-03    0.385E-04
DAV:  11    -0.273877612781E+02   -0.59291E-05   -0.48323E-07   110   0.267E-03    0.294E-04
DAV:  12    -0.273877627847E+02   -0.15065E-05   -0.52352E-08   170   0.100E-03    0.233E-04
DAV:  13    -0.273877642064E+02   -0.14217E-05   -0.66516E-08   100   0.105E-03    0.204E-04
DAV:  14    -0.273877644623E+02   -0.25588E-06   -0.47672E-09   170   0.312E-04
   2 F= -.27387764E+02 E0= -.27387764E+02  d E =-.908393E-13
 Finite differences progress:
  Degree of freedom:   1/ 15
  Displacement:        1/  2
  Total:               1/ 30


 VERY BAD NEWS! internal error in subroutine IBZKPT:
 Reciprocal lattice and k-lattice belong to different class of lattices. Often results are still useful...       5


 VERY BAD NEWS! internal error in subroutine IBZKPT:
 Reciprocal lattice and k-lattice belong to different class of lattices. Often results are still useful...       5


 VERY BAD NEWS! internal error in subroutine IBZKPT:
 Reciprocal lattice and k-lattice belong to different class of lattices. Often results are still useful...       5


 VERY BAD NEWS! internal error in subroutine IBZKPT:
 Reciprocal lattice and k-lattice belong to different class of lattices. Often results are still useful...       5


 VERY BAD NEWS! internal error in subroutine IBZKPT:
 Reciprocal lattice and k-lattice belong to different class of lattices. Often results are still useful...       5


 VERY BAD NEWS! internal error in subroutine IBZKPT:
 Reciprocal lattice and k-lattice belong to different class of lattices. Often results are still useful...       5


 VERY BAD NEWS! internal error in subroutine IBZKPT:
 Reciprocal lattice and k-lattice belong to different class of lattices. Often results are still useful...       5


 VERY BAD NEWS! internal error in subroutine IBZKPT:
 Reciprocal lattice and k-lattice belong to different class of lattices. Often results are still useful...       5


 VERY BAD NEWS! internal error in subroutine IBZKPT:
 Reciprocal lattice and k-lattice belong to different class of lattices. Often results are still useful...       5


 VERY BAD NEWS! internal error in subroutine IBZKPT:
 Reciprocal lattice and k-lattice belong to different class of lattices. Often results are still useful...       5
 bond charge predicted
       N       E                     dE             d eps       ncg     rms          rms(c)
DAV:   1    -0.273869759038E+02    0.78830E-03   -0.38843E+00   100   0.185E+01    0.473E-01
DAV:   2    -0.273878137468E+02   -0.83784E-03   -0.38410E-02   110   0.180E+00    0.291E-01
DAV:   3    -0.273872487821E+02    0.56496E-03   -0.26204E-03   160   0.483E-01    0.119E-01
DAV:   4    -0.273872172188E+02    0.31563E-04   -0.77914E-04   140   0.214E-01    0.384E-02
DAV:   5    -0.273872192873E+02   -0.20685E-05   -0.13567E-04   140   0.877E-02    0.125E-02
DAV:   6    -0.273872451077E+02   -0.25820E-04   -0.15046E-05   110   0.332E-02    0.770E-03
DAV:   7    -0.273872969766E+02   -0.51869E-04   -0.14763E-05   110   0.272E-02    0.298E-03
DAV:   8    -0.273873508231E+02   -0.53846E-04   -0.41173E-06   120   0.121E-02    0.206E-03
DAV:   9    -0.273874070423E+02   -0.56219E-04   -0.55354E-06   130   0.970E-03    0.120E-03
DAV:  10    -0.273874303851E+02   -0.23343E-04   -0.13394E-06   150   0.537E-03    0.626E-04
DAV:  11    -0.273874433705E+02   -0.12985E-04   -0.78614E-07   120   0.385E-03    0.440E-04
DAV:  12    -0.273874472242E+02   -0.38538E-05   -0.10173E-07   150   0.153E-03    0.246E-04
DAV:  13    -0.273874504346E+02   -0.32104E-05   -0.17558E-07   110   0.169E-03    0.228E-04
DAV:  14    -0.273874510389E+02   -0.60429E-06   -0.17132E-08   150   0.581E-04
   3 F= -.27387451E+02 E0= -.27387451E+02  d E =-.376280E-13
 Finite differences progress:
  Degree of freedom:   1/ 15
  Displacement:        2/  2
  Total:               2/ 30


 VERY BAD NEWS! internal error in subroutine IBZKPT:
 Reciprocal lattice and k-lattice belong to different class of lattices. Often results are still useful...       5


 VERY BAD NEWS! internal error in subroutine IBZKPT:
 Reciprocal lattice and k-lattice belong to different class of lattices. Often results are still useful...       5


 VERY BAD NEWS! internal error in subroutine IBZKPT:
 Reciprocal lattice and k-lattice belong to different class of lattices. Often results are still useful...       5


 VERY BAD NEWS! internal error in subroutine IBZKPT:
 Reciprocal lattice and k-lattice belong to different class of lattices. Often results are still useful...       5


 VERY BAD NEWS! internal error in subroutine IBZKPT:
 Reciprocal lattice and k-lattice belong to different class of lattices. Often results are still useful...       5


 VERY BAD NEWS! internal error in subroutine IBZKPT:
 Reciprocal lattice and k-lattice belong to different class of lattices. Often results are still useful...       5


 VERY BAD NEWS! internal error in subroutine IBZKPT:
 Reciprocal lattice and k-lattice belong to different class of lattices. Often results are still useful...       5


 VERY BAD NEWS! internal error in subroutine IBZKPT:
 Reciprocal lattice and k-lattice belong to different class of lattices. Often results are still useful...       5


 VERY BAD NEWS! internal error in subroutine IBZKPT:
 Reciprocal lattice and k-lattice belong to different class of lattices. Often results are still useful...       5


 VERY BAD NEWS! internal error in subroutine IBZKPT:
 Reciprocal lattice and k-lattice belong to different class of lattices. Often results are still useful...       5
 bond charge predicted
       N       E                     dE             d eps       ncg     rms          rms(c)
DAV:   1    -0.273950405256E+02   -0.75901E-02   -0.18103E+00   100   0.121E+01    0.273E-01
DAV:   2    -0.273954514383E+02   -0.41091E-03   -0.11730E-02   150   0.997E-01    0.171E-01
DAV:   3    -0.273953630372E+02    0.88401E-04   -0.14775E-03   140   0.306E-01    0.384E-02
DAV:   4    -0.273953783000E+02   -0.15263E-04   -0.20696E-04   140   0.109E-01    0.172E-02
DAV:   5    -0.273953846885E+02   -0.63885E-05   -0.11360E-05   120   0.247E-02    0.804E-03
DAV:   6    -0.273953921933E+02   -0.75049E-05   -0.61994E-06   130   0.183E-02    0.218E-03
DAV:   7    -0.273954005917E+02   -0.83984E-05   -0.12028E-06   150   0.767E-03    0.111E-03
DAV:   8    -0.273954099215E+02   -0.93298E-05   -0.70074E-07   130   0.412E-03    0.677E-04
DAV:   9    -0.273954183420E+02   -0.84205E-05   -0.72268E-07   130   0.361E-03    0.404E-04
DAV:  10    -0.273954242832E+02   -0.59411E-05   -0.52338E-07   120   0.271E-03    0.306E-04
DAV:  11    -0.273954272636E+02   -0.29804E-05   -0.20374E-07   140   0.170E-03    0.211E-04
DAV:  12    -0.273954283739E+02   -0.11104E-05   -0.42356E-08   130   0.791E-04    0.199E-04
DAV:  13    -0.273954290229E+02   -0.64897E-06   -0.21719E-08   100   0.594E-04
   4 F= -.27395429E+02 E0= -.27395429E+02  d E =-.206654E-15
 Finite differences progress:
  Degree of freedom:   2/ 15
  Displacement:        1/  2
  Total:               3/ 30


 VERY BAD NEWS! internal error in subroutine IBZKPT:
 Reciprocal lattice and k-lattice belong to different class of lattices. Often results are still useful...       5


 VERY BAD NEWS! internal error in subroutine IBZKPT:
 Reciprocal lattice and k-lattice belong to different class of lattices. Often results are still useful...       5


 VERY BAD NEWS! internal error in subroutine IBZKPT:
 Reciprocal lattice and k-lattice belong to different class of lattices. Often results are still useful...       5


 VERY BAD NEWS! internal error in subroutine IBZKPT:
 Reciprocal lattice and k-lattice belong to different class of lattices. Often results are still useful...       5


 VERY BAD NEWS! internal error in subroutine IBZKPT:
 Reciprocal lattice and k-lattice belong to different class of lattices. Often results are still useful...       5


 VERY BAD NEWS! internal error in subroutine IBZKPT:
 Reciprocal lattice and k-lattice belong to different class of lattices. Often results are still useful...       5


 VERY BAD NEWS! internal error in subroutine IBZKPT:
 Reciprocal lattice and k-lattice belong to different class of lattices. Often results are still useful...       5


 VERY BAD NEWS! internal error in subroutine IBZKPT:
 Reciprocal lattice and k-lattice belong to different class of lattices. Often results are still useful...       5


 VERY BAD NEWS! internal error in subroutine IBZKPT:
 Reciprocal lattice and k-lattice belong to different class of lattices. Often results are still useful...       5


 VERY BAD NEWS! internal error in subroutine IBZKPT:
 Reciprocal lattice and k-lattice belong to different class of lattices. Often results are still useful...       5
 bond charge predicted
       N       E                     dE             d eps       ncg     rms          rms(c)
DAV:   1    -0.273947495208E+02    0.67885E-03   -0.35862E+00   100   0.168E+01    0.381E-01
DAV:   2    -0.273955596256E+02   -0.81010E-03   -0.21794E-02   150   0.133E+00    0.236E-01
DAV:   3    -0.273953053270E+02    0.25430E-03   -0.30017E-03   140   0.420E-01    0.511E-02
DAV:   4    -0.273953421813E+02   -0.36854E-04   -0.32701E-04   160   0.140E-01    0.242E-02
DAV:   5    -0.273953551661E+02   -0.12985E-04   -0.23268E-05   140   0.331E-02    0.103E-02
DAV:   6    -0.273953652919E+02   -0.10126E-04   -0.10740E-05   120   0.239E-02    0.299E-03
DAV:   7    -0.273953749054E+02   -0.96135E-05   -0.16445E-06   120   0.953E-03    0.127E-03
DAV:   8    -0.273953846489E+02   -0.97435E-05   -0.57723E-07   130   0.391E-03    0.781E-04
DAV:   9    -0.273953986900E+02   -0.14041E-04   -0.14070E-06   110   0.493E-03    0.473E-04
DAV:  10    -0.273954054387E+02   -0.67487E-05   -0.49767E-07   160   0.269E-03    0.344E-04
DAV:  11    -0.273954101700E+02   -0.47312E-05   -0.33795E-07   110   0.216E-03    0.223E-04
DAV:  12    -0.273954118796E+02   -0.17097E-05   -0.64625E-08   150   0.102E-03    0.204E-04
DAV:  13    -0.273954126679E+02   -0.78826E-06   -0.20014E-08   130   0.595E-04
   5 F= -.27395413E+02 E0= -.27395413E+02  d E =-.104723E-17
 Finite differences progress:
  Degree of freedom:   2/ 15
  Displacement:        2/  2
  Total:               4/ 30


 VERY BAD NEWS! internal error in subroutine IBZKPT:
 Reciprocal lattice and k-lattice belong to different class of lattices. Often results are still useful...       5


 VERY BAD NEWS! internal error in subroutine IBZKPT:
 Reciprocal lattice and k-lattice belong to different class of lattices. Often results are still useful...       5


 VERY BAD NEWS! internal error in subroutine IBZKPT:
 Reciprocal lattice and k-lattice belong to different class of lattices. Often results are still useful...       5


 VERY BAD NEWS! internal error in subroutine IBZKPT:
 Reciprocal lattice and k-lattice belong to different class of lattices. Often results are still useful...       5


 VERY BAD NEWS! internal error in subroutine IBZKPT:
 Reciprocal lattice and k-lattice belong to different class of lattices. Often results are still useful...       5


 VERY BAD NEWS! internal error in subroutine IBZKPT:
 Reciprocal lattice and k-lattice belong to different class of lattices. Often results are still useful...       5


 VERY BAD NEWS! internal error in subroutine IBZKPT:
 Reciprocal lattice and k-lattice belong to different class of lattices. Often results are still useful...       5


 VERY BAD NEWS! internal error in subroutine IBZKPT:
 Reciprocal lattice and k-lattice belong to different class of lattices. Often results are still useful...       5


 VERY BAD NEWS! internal error in subroutine IBZKPT:
 Reciprocal lattice and k-lattice belong to different class of lattices. Often results are still useful...       5


 VERY BAD NEWS! internal error in subroutine IBZKPT:
 Reciprocal lattice and k-lattice belong to different class of lattices. Often results are still useful...       5
 bond charge predicted
       N       E                     dE             d eps       ncg     rms          rms(c)
DAV:   1    -0.273824616309E+02    0.12950E-01   -0.18957E+00   100   0.127E+01    0.314E-01
DAV:   2    -0.273830412720E+02   -0.57964E-03   -0.17510E-02   150   0.123E+00    0.196E-01
DAV:   3    -0.273827495226E+02    0.29175E-03   -0.20282E-03   160   0.381E-01    0.600E-02
DAV:   4    -0.273827453327E+02    0.41899E-05   -0.34453E-04   180   0.140E-01    0.263E-02
DAV:   5    -0.273827555708E+02   -0.10238E-04   -0.32262E-05   150   0.447E-02    0.104E-02
DAV:   6    -0.273827672289E+02   -0.11658E-04   -0.12145E-05   130   0.261E-02    0.414E-03
DAV:   7    -0.273827890883E+02   -0.21859E-04   -0.44616E-06   140   0.142E-02    0.201E-03
DAV:   8    -0.273828068095E+02   -0.17721E-04   -0.11990E-06   140   0.636E-03    0.114E-03
DAV:   9    -0.273828327154E+02   -0.25906E-04   -0.30117E-06   140   0.741E-03    0.729E-04
DAV:  10    -0.273828431660E+02   -0.10451E-04   -0.75999E-07   170   0.365E-03    0.465E-04
DAV:  11    -0.273828512830E+02   -0.81170E-05   -0.55566E-07   150   0.308E-03    0.267E-04
DAV:  12    -0.273828540553E+02   -0.27724E-05   -0.10015E-07   160   0.133E-03    0.239E-04
DAV:  13    -0.273828552675E+02   -0.12122E-05   -0.29042E-08   150   0.767E-04    0.200E-04
DAV:  14    -0.273828557838E+02   -0.51632E-06   -0.89865E-09   140   0.450E-04
   6 F= -.27382856E+02 E0= -.27382856E+02  d E =-.841352E-15
 Finite differences progress:
  Degree of freedom:   3/ 15
  Displacement:        1/  2
  Total:               5/ 30


 VERY BAD NEWS! internal error in subroutine IBZKPT:
 Reciprocal lattice and k-lattice belong to different class of lattices. Often results are still useful...       5


 VERY BAD NEWS! internal error in subroutine IBZKPT:
 Reciprocal lattice and k-lattice belong to different class of lattices. Often results are still useful...       5


 VERY BAD NEWS! internal error in subroutine IBZKPT:
 Reciprocal lattice and k-lattice belong to different class of lattices. Often results are still useful...       5


 VERY BAD NEWS! internal error in subroutine IBZKPT:
 Reciprocal lattice and k-lattice belong to different class of lattices. Often results are still useful...       5


 VERY BAD NEWS! internal error in subroutine IBZKPT:
 Reciprocal lattice and k-lattice belong to different class of lattices. Often results are still useful...       5


 VERY BAD NEWS! internal error in subroutine IBZKPT:
 Reciprocal lattice and k-lattice belong to different class of lattices. Often results are still useful...       5


 VERY BAD NEWS! internal error in subroutine IBZKPT:
 Reciprocal lattice and k-lattice belong to different class of lattices. Often results are still useful...       5


 VERY BAD NEWS! internal error in subroutine IBZKPT:
 Reciprocal lattice and k-lattice belong to different class of lattices. Often results are still useful...       5


 VERY BAD NEWS! internal error in subroutine IBZKPT:
 Reciprocal lattice and k-lattice belong to different class of lattices. Often results are still useful...       5


 VERY BAD NEWS! internal error in subroutine IBZKPT:
 Reciprocal lattice and k-lattice belong to different class of lattices. Often results are still useful...       5
 bond charge predicted
       N       E                     dE             d eps       ncg     rms          rms(c)
DAV:   1    -0.273852729677E+02   -0.24177E-02   -0.40618E+00   100   0.188E+01    0.605E-01
DAV:   2    -0.273846578115E+02    0.61516E-03   -0.54819E-02   140   0.217E+00    0.334E-01
DAV:   3    -0.273836726992E+02    0.98511E-03   -0.51826E-03   160   0.643E-01    0.136E-01
DAV:   4    -0.273835548246E+02    0.11787E-03   -0.14539E-03   170   0.261E-01    0.616E-02
DAV:   5    -0.273835315944E+02    0.23230E-04   -0.32291E-04   160   0.132E-01    0.173E-02
DAV:   6    -0.273835542849E+02   -0.22690E-04   -0.26929E-05   140   0.440E-02    0.111E-02
DAV:   7    -0.273835998969E+02   -0.45612E-04   -0.16478E-05   150   0.277E-02    0.321E-03
DAV:   8    -0.273836407228E+02   -0.40826E-04   -0.25206E-06   160   0.110E-02    0.276E-03
DAV:   9    -0.273837164201E+02   -0.75697E-04   -0.85341E-06   150   0.127E-02    0.133E-03
DAV:  10    -0.273837371635E+02   -0.20743E-04   -0.81539E-07   170   0.426E-03    0.725E-04
DAV:  11    -0.273837556017E+02   -0.18438E-04   -0.11887E-06   150   0.449E-03    0.444E-04
DAV:  12    -0.273837626957E+02   -0.70939E-05   -0.32236E-07   160   0.253E-03    0.331E-04
DAV:  13    -0.273837651311E+02   -0.24355E-05   -0.97043E-08   140   0.145E-03    0.245E-04
DAV:  14    -0.273837657316E+02   -0.60048E-06   -0.15976E-08   160   0.592E-04
   7 F= -.27383766E+02 E0= -.27383766E+02  d E =-.179814E-10
 Finite differences progress:
  Degree of freedom:   3/ 15
  Displacement:        2/  2
  Total:               6/ 30


 VERY BAD NEWS! internal error in subroutine IBZKPT:
 Reciprocal lattice and k-lattice belong to different class of lattices. Often results are still useful...       5


 VERY BAD NEWS! internal error in subroutine IBZKPT:
 Reciprocal lattice and k-lattice belong to different class of lattices. Often results are still useful...       5


 VERY BAD NEWS! internal error in subroutine IBZKPT:
 Reciprocal lattice and k-lattice belong to different class of lattices. Often results are still useful...       5


 VERY BAD NEWS! internal error in subroutine IBZKPT:
 Reciprocal lattice and k-lattice belong to different class of lattices. Often results are still useful...       5


 VERY BAD NEWS! internal error in subroutine IBZKPT:
 Reciprocal lattice and k-lattice belong to different class of lattices. Often results are still useful...       5


 VERY BAD NEWS! internal error in subroutine IBZKPT:
 Reciprocal lattice and k-lattice belong to different class of lattices. Often results are still useful...       5


 VERY BAD NEWS! internal error in subroutine IBZKPT:
 Reciprocal lattice and k-lattice belong to different class of lattices. Often results are still useful...       5


 VERY BAD NEWS! internal error in subroutine IBZKPT:
 Reciprocal lattice and k-lattice belong to different class of lattices. Often results are still useful...       5


 VERY BAD NEWS! internal error in subroutine IBZKPT:
 Reciprocal lattice and k-lattice belong to different class of lattices. Often results are still useful...       5


 VERY BAD NEWS! internal error in subroutine IBZKPT:
 Reciprocal lattice and k-lattice belong to different class of lattices. Often results are still useful...       5
 bond charge predicted
       N       E                     dE             d eps       ncg     rms          rms(c)
DAV:   1    -0.273907394788E+02   -0.69743E-02   -0.23325E+00   100   0.153E+01    0.339E-01
DAV:   2    -0.273922326436E+02   -0.14932E-02   -0.27183E-02   140   0.144E+00    0.202E-01
DAV:   3    -0.273920647739E+02    0.16787E-03   -0.12124E-03   170   0.259E-01    0.105E-01
DAV:   4    -0.273921602717E+02   -0.95498E-04   -0.27744E-04   130   0.150E-01    0.206E-02
DAV:   5    -0.273921747122E+02   -0.14441E-04   -0.49606E-05   140   0.558E-02    0.985E-03
DAV:   6    -0.273921887147E+02   -0.14002E-04   -0.51932E-06   120   0.180E-02    0.436E-03
DAV:   7    -0.273922080384E+02   -0.19324E-04   -0.25050E-06   120   0.109E-02    0.151E-03
DAV:   8    -0.273922344450E+02   -0.26407E-04   -0.28715E-06   130   0.841E-03    0.884E-04
DAV:   9    -0.273922480237E+02   -0.13579E-04   -0.12928E-06   130   0.510E-03    0.714E-04
DAV:  10    -0.273922575802E+02   -0.95565E-05   -0.84130E-07   120   0.402E-03    0.326E-04
DAV:  11    -0.273922610810E+02   -0.35008E-05   -0.18747E-07   160   0.193E-03    0.292E-04
DAV:  12    -0.273922630186E+02   -0.19376E-05   -0.62934E-08   140   0.115E-03    0.207E-04
DAV:  13    -0.273922641439E+02   -0.11253E-05   -0.35620E-08   140   0.816E-04    0.191E-04
DAV:  14    -0.273922645699E+02   -0.42598E-06   -0.84571E-09   140   0.415E-04
   8 F= -.27392265E+02 E0= -.27392265E+02  d E =-.326728E-14
 Finite differences progress:
  Degree of freedom:   4/ 15
  Displacement:        1/  2
  Total:               7/ 30


 VERY BAD NEWS! internal error in subroutine IBZKPT:
 Reciprocal lattice and k-lattice belong to different class of lattices. Often results are still useful...       5


 VERY BAD NEWS! internal error in subroutine IBZKPT:
 Reciprocal lattice and k-lattice belong to different class of lattices. Often results are still useful...       5


 VERY BAD NEWS! internal error in subroutine IBZKPT:
 Reciprocal lattice and k-lattice belong to different class of lattices. Often results are still useful...       5


 VERY BAD NEWS! internal error in subroutine IBZKPT:
 Reciprocal lattice and k-lattice belong to different class of lattices. Often results are still useful...       5


 VERY BAD NEWS! internal error in subroutine IBZKPT:
 Reciprocal lattice and k-lattice belong to different class of lattices. Often results are still useful...       5


 VERY BAD NEWS! internal error in subroutine IBZKPT:
 Reciprocal lattice and k-lattice belong to different class of lattices. Often results are still useful...       5


 VERY BAD NEWS! internal error in subroutine IBZKPT:
 Reciprocal lattice and k-lattice belong to different class of lattices. Often results are still useful...       5


 VERY BAD NEWS! internal error in subroutine IBZKPT:
 Reciprocal lattice and k-lattice belong to different class of lattices. Often results are still useful...       5


 VERY BAD NEWS! internal error in subroutine IBZKPT:
 Reciprocal lattice and k-lattice belong to different class of lattices. Often results are still useful...       5


 VERY BAD NEWS! internal error in subroutine IBZKPT:
 Reciprocal lattice and k-lattice belong to different class of lattices. Often results are still useful...       5
 bond charge predicted
       N       E                     dE             d eps       ncg     rms          rms(c)
DAV:   1    -0.273931270804E+02   -0.86294E-03   -0.67791E+00   100   0.248E+01    0.674E-01
DAV:   2    -0.273917186476E+02    0.14084E-02   -0.86263E-02   150   0.234E+00    0.341E-01
DAV:   3    -0.273910498939E+02    0.66875E-03   -0.51103E-03   160   0.558E-01    0.183E-01
DAV:   4    -0.273913386096E+02   -0.28872E-03   -0.83597E-04   170   0.245E-01    0.617E-02
DAV:   5    -0.273913977518E+02   -0.59142E-04   -0.14032E-04   170   0.950E-02    0.133E-02
DAV:   6    -0.273914147569E+02   -0.17005E-04   -0.15132E-05   120   0.299E-02    0.665E-03
DAV:   7    -0.273914490906E+02   -0.34334E-04   -0.42967E-06   120   0.152E-02    0.261E-03
DAV:   8    -0.273914895300E+02   -0.40439E-04   -0.27412E-06   140   0.908E-03    0.165E-03
DAV:   9    -0.273915295777E+02   -0.40048E-04   -0.41678E-06   160   0.917E-03    0.132E-03
DAV:  10    -0.273915505310E+02   -0.20953E-04   -0.18535E-06   150   0.620E-03    0.595E-04
DAV:  11    -0.273915596704E+02   -0.91394E-05   -0.43386E-07   170   0.295E-03    0.382E-04
DAV:  12    -0.273915660279E+02   -0.63575E-05   -0.28299E-07   160   0.217E-03    0.260E-04
DAV:  13    -0.273915687411E+02   -0.27131E-05   -0.11325E-07   160   0.133E-03    0.205E-04
DAV:  14    -0.273915697006E+02   -0.95954E-06   -0.30238E-08   160   0.717E-04
   9 F= -.27391570E+02 E0= -.27391570E+02  d E =-.251740E-11
 Finite differences progress:
  Degree of freedom:   4/ 15
  Displacement:        2/  2
  Total:               8/ 30


 VERY BAD NEWS! internal error in subroutine IBZKPT:
 Reciprocal lattice and k-lattice belong to different class of lattices. Often results are still useful...       5


 VERY BAD NEWS! internal error in subroutine IBZKPT:
 Reciprocal lattice and k-lattice belong to different class of lattices. Often results are still useful...       5


 VERY BAD NEWS! internal error in subroutine IBZKPT:
 Reciprocal lattice and k-lattice belong to different class of lattices. Often results are still useful...       5


 VERY BAD NEWS! internal error in subroutine IBZKPT:
 Reciprocal lattice and k-lattice belong to different class of lattices. Often results are still useful...       5


 VERY BAD NEWS! internal error in subroutine IBZKPT:
 Reciprocal lattice and k-lattice belong to different class of lattices. Often results are still useful...       5


 VERY BAD NEWS! internal error in subroutine IBZKPT:
 Reciprocal lattice and k-lattice belong to different class of lattices. Often results are still useful...       5


 VERY BAD NEWS! internal error in subroutine IBZKPT:
 Reciprocal lattice and k-lattice belong to different class of lattices. Often results are still useful...       5


 VERY BAD NEWS! internal error in subroutine IBZKPT:
 Reciprocal lattice and k-lattice belong to different class of lattices. Often results are still useful...       5


 VERY BAD NEWS! internal error in subroutine IBZKPT:
 Reciprocal lattice and k-lattice belong to different class of lattices. Often results are still useful...       5


 VERY BAD NEWS! internal error in subroutine IBZKPT:
 Reciprocal lattice and k-lattice belong to different class of lattices. Often results are still useful...       5
 bond charge predicted
       N       E                     dE             d eps       ncg     rms          rms(c)
DAV:   1    -0.273973889505E+02   -0.58202E-02   -0.32084E+00   100   0.167E+01    0.407E-01
DAV:   2    -0.273971845919E+02    0.20436E-03   -0.29670E-02   120   0.136E+00    0.231E-01
DAV:   3    -0.273968132441E+02    0.37135E-03   -0.27969E-03   140   0.420E-01    0.765E-02
DAV:   4    -0.273969804323E+02   -0.16719E-03   -0.40152E-04   170   0.165E-01    0.307E-02
DAV:   5    -0.273970205226E+02   -0.40090E-04   -0.36094E-05   130   0.468E-02    0.972E-03
DAV:   6    -0.273970370522E+02   -0.16530E-04   -0.97994E-06   140   0.228E-02    0.337E-03
DAV:   7    -0.273970500025E+02   -0.12950E-04   -0.15309E-06   140   0.872E-03    0.172E-03
DAV:   8    -0.273970800184E+02   -0.30016E-04   -0.32755E-06   120   0.815E-03    0.936E-04
DAV:   9    -0.273970985719E+02   -0.18554E-04   -0.22435E-06   130   0.633E-03    0.853E-04
DAV:  10    -0.273971085965E+02   -0.10025E-04   -0.89861E-07   140   0.403E-03    0.368E-04
DAV:  11    -0.273971126024E+02   -0.40059E-05   -0.20253E-07   150   0.195E-03    0.296E-04
DAV:  12    -0.273971154414E+02   -0.28389E-05   -0.11441E-07   140   0.147E-03    0.205E-04
DAV:  13    -0.273971164232E+02   -0.98187E-06   -0.34004E-08   140   0.775E-04
  10 F= -.27397116E+02 E0= -.27397116E+02  d E =-.291226E-17
 Finite differences progress:
  Degree of freedom:   5/ 15
  Displacement:        1/  2
  Total:               9/ 30


 VERY BAD NEWS! internal error in subroutine IBZKPT:
 Reciprocal lattice and k-lattice belong to different class of lattices. Often results are still useful...       5


 VERY BAD NEWS! internal error in subroutine IBZKPT:
 Reciprocal lattice and k-lattice belong to different class of lattices. Often results are still useful...       5


 VERY BAD NEWS! internal error in subroutine IBZKPT:
 Reciprocal lattice and k-lattice belong to different class of lattices. Often results are still useful...       5


 VERY BAD NEWS! internal error in subroutine IBZKPT:
 Reciprocal lattice and k-lattice belong to different class of lattices. Often results are still useful...       5


 VERY BAD NEWS! internal error in subroutine IBZKPT:
 Reciprocal lattice and k-lattice belong to different class of lattices. Often results are still useful...       5


 VERY BAD NEWS! internal error in subroutine IBZKPT:
 Reciprocal lattice and k-lattice belong to different class of lattices. Often results are still useful...       5


 VERY BAD NEWS! internal error in subroutine IBZKPT:
 Reciprocal lattice and k-lattice belong to different class of lattices. Often results are still useful...       5


 VERY BAD NEWS! internal error in subroutine IBZKPT:
 Reciprocal lattice and k-lattice belong to different class of lattices. Often results are still useful...       5


 VERY BAD NEWS! internal error in subroutine IBZKPT:
 Reciprocal lattice and k-lattice belong to different class of lattices. Often results are still useful...       5


 VERY BAD NEWS! internal error in subroutine IBZKPT:
 Reciprocal lattice and k-lattice belong to different class of lattices. Often results are still useful...       5
 bond charge predicted
       N       E                     dE             d eps       ncg     rms          rms(c)
DAV:   1    -0.273975407579E+02   -0.42532E-03   -0.63438E+00   100   0.232E+01    0.560E-01
DAV:   2    -0.273976634391E+02   -0.12268E-03   -0.56086E-02   140   0.185E+00    0.322E-01
DAV:   3    -0.273966921386E+02    0.97130E-03   -0.59892E-03   120   0.592E-01    0.956E-02
DAV:   4    -0.273969538962E+02   -0.26176E-03   -0.89149E-04   160   0.241E-01    0.403E-02
DAV:   5    -0.273970158485E+02   -0.61952E-04   -0.69847E-05   150   0.648E-02    0.177E-02
DAV:   6    -0.273970578098E+02   -0.41961E-04   -0.16578E-05   150   0.318E-02    0.476E-03
DAV:   7    -0.273970848436E+02   -0.27034E-04   -0.37636E-06   150   0.127E-02    0.241E-03
DAV:   8    -0.273971428488E+02   -0.58005E-04   -0.71991E-06   130   0.126E-02    0.124E-03
DAV:   9    -0.273971740823E+02   -0.31234E-04   -0.35299E-06   130   0.805E-03    0.121E-03
DAV:  10    -0.273971936624E+02   -0.19580E-04   -0.19917E-06   120   0.606E-03    0.504E-04
DAV:  11    -0.273971994909E+02   -0.58284E-05   -0.24304E-07   140   0.242E-03    0.322E-04
DAV:  12    -0.273972034816E+02   -0.39908E-05   -0.17604E-07   120   0.177E-03    0.248E-04
DAV:  13    -0.273972051368E+02   -0.16552E-05   -0.66267E-08   140   0.109E-03    0.200E-04
DAV:  14    -0.273972057772E+02   -0.64045E-06   -0.18439E-08   130   0.611E-04
  11 F= -.27397206E+02 E0= -.27397206E+02  d E =-.460427E-16
 Finite differences progress:
  Degree of freedom:   5/ 15
  Displacement:        2/  2
  Total:              10/ 30


 VERY BAD NEWS! internal error in subroutine IBZKPT:
 Reciprocal lattice and k-lattice belong to different class of lattices. Often results are still useful...       5


 VERY BAD NEWS! internal error in subroutine IBZKPT:
 Reciprocal lattice and k-lattice belong to different class of lattices. Often results are still useful...       5


 VERY BAD NEWS! internal error in subroutine IBZKPT:
 Reciprocal lattice and k-lattice belong to different class of lattices. Often results are still useful...       5


 VERY BAD NEWS! internal error in subroutine IBZKPT:
 Reciprocal lattice and k-lattice belong to different class of lattices. Often results are still useful...       5


 VERY BAD NEWS! internal error in subroutine IBZKPT:
 Reciprocal lattice and k-lattice belong to different class of lattices. Often results are still useful...       5


 VERY BAD NEWS! internal error in subroutine IBZKPT:
 Reciprocal lattice and k-lattice belong to different class of lattices. Often results are still useful...       5


 VERY BAD NEWS! internal error in subroutine IBZKPT:
 Reciprocal lattice and k-lattice belong to different class of lattices. Often results are still useful...       5


 VERY BAD NEWS! internal error in subroutine IBZKPT:
 Reciprocal lattice and k-lattice belong to different class of lattices. Often results are still useful...       5


 VERY BAD NEWS! internal error in subroutine IBZKPT:
 Reciprocal lattice and k-lattice belong to different class of lattices. Often results are still useful...       5


 VERY BAD NEWS! internal error in subroutine IBZKPT:
 Reciprocal lattice and k-lattice belong to different class of lattices. Often results are still useful...       5
 bond charge predicted
       N       E                     dE             d eps       ncg     rms          rms(c)
DAV:   1    -0.273842199009E+02    0.12985E-01   -0.32420E+00   100   0.175E+01    0.401E-01
DAV:   2    -0.273846715749E+02   -0.45167E-03   -0.37125E-02   150   0.169E+00    0.229E-01
DAV:   3    -0.273841639404E+02    0.50763E-03   -0.29006E-03   170   0.479E-01    0.801E-02
DAV:   4    -0.273842511438E+02   -0.87203E-04   -0.54524E-04   150   0.186E-01    0.341E-02
DAV:   5    -0.273842796322E+02   -0.28488E-04   -0.73748E-05   140   0.640E-02    0.158E-02
DAV:   6    -0.273842960448E+02   -0.16413E-04   -0.99694E-06   120   0.266E-02    0.548E-03
DAV:   7    -0.273843120302E+02   -0.15985E-04   -0.53016E-06   170   0.164E-02    0.171E-03
DAV:   8    -0.273843291634E+02   -0.17133E-04   -0.12374E-06   130   0.703E-03    0.111E-03
DAV:   9    -0.273843526459E+02   -0.23482E-04   -0.26138E-06   150   0.644E-03    0.773E-04
DAV:  10    -0.273843615974E+02   -0.89514E-05   -0.63368E-07   160   0.338E-03    0.457E-04
DAV:  11    -0.273843694141E+02   -0.78167E-05   -0.61577E-07   150   0.320E-03    0.353E-04
DAV:  12    -0.273843710145E+02   -0.16004E-05   -0.37305E-08   170   0.991E-04    0.283E-04
DAV:  13    -0.273843726075E+02   -0.15930E-05   -0.59536E-08   130   0.106E-03    0.239E-04
DAV:  14    -0.273843730777E+02   -0.47017E-06   -0.12070E-08   170   0.504E-04
  12 F= -.27384373E+02 E0= -.27384373E+02  d E =-.136674E-12
 Finite differences progress:
  Degree of freedom:   6/ 15
  Displacement:        1/  2
  Total:              11/ 30


 VERY BAD NEWS! internal error in subroutine IBZKPT:
 Reciprocal lattice and k-lattice belong to different class of lattices. Often results are still useful...       5


 VERY BAD NEWS! internal error in subroutine IBZKPT:
 Reciprocal lattice and k-lattice belong to different class of lattices. Often results are still useful...       5


 VERY BAD NEWS! internal error in subroutine IBZKPT:
 Reciprocal lattice and k-lattice belong to different class of lattices. Often results are still useful...       5


 VERY BAD NEWS! internal error in subroutine IBZKPT:
 Reciprocal lattice and k-lattice belong to different class of lattices. Often results are still useful...       5


 VERY BAD NEWS! internal error in subroutine IBZKPT:
 Reciprocal lattice and k-lattice belong to different class of lattices. Often results are still useful...       5


 VERY BAD NEWS! internal error in subroutine IBZKPT:
 Reciprocal lattice and k-lattice belong to different class of lattices. Often results are still useful...       5


 VERY BAD NEWS! internal error in subroutine IBZKPT:
 Reciprocal lattice and k-lattice belong to different class of lattices. Often results are still useful...       5


 VERY BAD NEWS! internal error in subroutine IBZKPT:
 Reciprocal lattice and k-lattice belong to different class of lattices. Often results are still useful...       5


 VERY BAD NEWS! internal error in subroutine IBZKPT:
 Reciprocal lattice and k-lattice belong to different class of lattices. Often results are still useful...       5


 VERY BAD NEWS! internal error in subroutine IBZKPT:
 Reciprocal lattice and k-lattice belong to different class of lattices. Often results are still useful...       5
 bond charge predicted
       N       E                     dE             d eps       ncg     rms          rms(c)
DAV:   1    -0.273847196155E+02   -0.34701E-03   -0.67154E+00   100   0.259E+01    0.650E-01
DAV:   2    -0.273852446090E+02   -0.52499E-03   -0.87234E-02   150   0.273E+00    0.356E-01
DAV:   3    -0.273835424955E+02    0.17021E-02   -0.88059E-03   170   0.799E-01    0.149E-01
DAV:   4    -0.273835480967E+02   -0.56012E-05   -0.99315E-04   150   0.257E-01    0.630E-02
DAV:   5    -0.273835736470E+02   -0.25550E-04   -0.93730E-05   150   0.852E-02    0.186E-02
DAV:   6    -0.273836090999E+02   -0.35453E-04   -0.18204E-05   130   0.379E-02    0.801E-03
DAV:   7    -0.273836584923E+02   -0.49392E-04   -0.56772E-06   150   0.176E-02    0.255E-03
DAV:   8    -0.273836893507E+02   -0.30858E-04   -0.17353E-06   160   0.816E-03    0.158E-03
DAV:   9    -0.273837560419E+02   -0.66691E-04   -0.84918E-06   150   0.124E-02    0.153E-03
DAV:  10    -0.273837765376E+02   -0.20496E-04   -0.12969E-06   170   0.507E-03    0.608E-04
DAV:  11    -0.273837874077E+02   -0.10870E-04   -0.62895E-07   160   0.358E-03    0.515E-04
DAV:  12    -0.273837908544E+02   -0.34468E-05   -0.73467E-08   170   0.139E-03    0.285E-04
DAV:  13    -0.273837941209E+02   -0.32665E-05   -0.17202E-07   160   0.171E-03    0.188E-04
DAV:  14    -0.273837945389E+02   -0.41797E-06   -0.70061E-09   180   0.429E-04
  13 F= -.27383795E+02 E0= -.27383795E+02  d E =-.588303E-13
 Finite differences progress:
  Degree of freedom:   6/ 15
  Displacement:        2/  2
  Total:              12/ 30


 VERY BAD NEWS! internal error in subroutine IBZKPT:
 Reciprocal lattice and k-lattice belong to different class of lattices. Often results are still useful...       5


 VERY BAD NEWS! internal error in subroutine IBZKPT:
 Reciprocal lattice and k-lattice belong to different class of lattices. Often results are still useful...       5


 VERY BAD NEWS! internal error in subroutine IBZKPT:
 Reciprocal lattice and k-lattice belong to different class of lattices. Often results are still useful...       5


 VERY BAD NEWS! internal error in subroutine IBZKPT:
 Reciprocal lattice and k-lattice belong to different class of lattices. Often results are still useful...       5


 VERY BAD NEWS! internal error in subroutine IBZKPT:
 Reciprocal lattice and k-lattice belong to different class of lattices. Often results are still useful...       5


 VERY BAD NEWS! internal error in subroutine IBZKPT:
 Reciprocal lattice and k-lattice belong to different class of lattices. Often results are still useful...       5


 VERY BAD NEWS! internal error in subroutine IBZKPT:
 Reciprocal lattice and k-lattice belong to different class of lattices. Often results are still useful...       5


 VERY BAD NEWS! internal error in subroutine IBZKPT:
 Reciprocal lattice and k-lattice belong to different class of lattices. Often results are still useful...       5


 VERY BAD NEWS! internal error in subroutine IBZKPT:
 Reciprocal lattice and k-lattice belong to different class of lattices. Often results are still useful...       5


 VERY BAD NEWS! internal error in subroutine IBZKPT:
 Reciprocal lattice and k-lattice belong to different class of lattices. Often results are still useful...       5
 bond charge predicted
       N       E                     dE             d eps       ncg     rms          rms(c)
DAV:   1    -0.273966428520E+02   -0.12849E-01   -0.18283E+00   100   0.135E+01    0.363E-01
DAV:   2    -0.273970715853E+02   -0.42873E-03   -0.34829E-02   150   0.157E+00    0.205E-01
DAV:   3    -0.273966198180E+02    0.45177E-03   -0.22632E-03   170   0.406E-01    0.979E-02
DAV:   4    -0.273966275496E+02   -0.77316E-05   -0.33741E-04   130   0.151E-01    0.366E-02
DAV:   5    -0.273966388182E+02   -0.11269E-04   -0.67080E-05   150   0.692E-02    0.110E-02
DAV:   6    -0.273966479774E+02   -0.91592E-05   -0.11260E-05   110   0.293E-02    0.660E-03
DAV:   7    -0.273966633706E+02   -0.15393E-04   -0.40745E-06   150   0.152E-02    0.176E-03
DAV:   8    -0.273966729509E+02   -0.95803E-05   -0.65344E-07   150   0.573E-03    0.971E-04
DAV:   9    -0.273966900191E+02   -0.17068E-04   -0.14900E-06   150   0.504E-03    0.626E-04
DAV:  10    -0.273966987642E+02   -0.87451E-05   -0.77586E-07   150   0.361E-03    0.368E-04
DAV:  11    -0.273967031691E+02   -0.44049E-05   -0.29254E-07   160   0.229E-03    0.289E-04
DAV:  12    -0.273967046934E+02   -0.15242E-05   -0.56598E-08   150   0.105E-03    0.209E-04
DAV:  13    -0.273967054859E+02   -0.79258E-06   -0.28246E-08   160   0.676E-04
  14 F= -.27396705E+02 E0= -.27396705E+02  d E =-.257191E-13
 Finite differences progress:
  Degree of freedom:   7/ 15
  Displacement:        1/  2
  Total:              13/ 30


 VERY BAD NEWS! internal error in subroutine IBZKPT:
 Reciprocal lattice and k-lattice belong to different class of lattices. Often results are still useful...       5


 VERY BAD NEWS! internal error in subroutine IBZKPT:
 Reciprocal lattice and k-lattice belong to different class of lattices. Often results are still useful...       5


 VERY BAD NEWS! internal error in subroutine IBZKPT:
 Reciprocal lattice and k-lattice belong to different class of lattices. Often results are still useful...       5


 VERY BAD NEWS! internal error in subroutine IBZKPT:
 Reciprocal lattice and k-lattice belong to different class of lattices. Often results are still useful...       5


 VERY BAD NEWS! internal error in subroutine IBZKPT:
 Reciprocal lattice and k-lattice belong to different class of lattices. Often results are still useful...       5


 VERY BAD NEWS! internal error in subroutine IBZKPT:
 Reciprocal lattice and k-lattice belong to different class of lattices. Often results are still useful...       5


 VERY BAD NEWS! internal error in subroutine IBZKPT:
 Reciprocal lattice and k-lattice belong to different class of lattices. Often results are still useful...       5


 VERY BAD NEWS! internal error in subroutine IBZKPT:
 Reciprocal lattice and k-lattice belong to different class of lattices. Often results are still useful...       5


 VERY BAD NEWS! internal error in subroutine IBZKPT:
 Reciprocal lattice and k-lattice belong to different class of lattices. Often results are still useful...       5


 VERY BAD NEWS! internal error in subroutine IBZKPT:
 Reciprocal lattice and k-lattice belong to different class of lattices. Often results are still useful...       5
 bond charge predicted
       N       E                     dE             d eps       ncg     rms          rms(c)
DAV:   1    -0.273973426252E+02   -0.63793E-03   -0.60668E-01   100   0.595E+00    0.283E-01
DAV:   2    -0.273967328217E+02    0.60980E-03   -0.57834E-03   150   0.540E-01    0.161E-01
DAV:   3    -0.273965937374E+02    0.13908E-03   -0.65705E-04   110   0.178E-01    0.589E-02
DAV:   4    -0.273966021554E+02   -0.84180E-05   -0.78040E-05   140   0.633E-02    0.140E-02
DAV:   5    -0.273966089423E+02   -0.67869E-05   -0.20246E-05   150   0.321E-02    0.455E-03
DAV:   6    -0.273966160127E+02   -0.70703E-05   -0.27452E-06   160   0.113E-02    0.236E-03
DAV:   7    -0.273966288151E+02   -0.12802E-04   -0.95274E-07   150   0.616E-03    0.949E-04
DAV:   8    -0.273966408942E+02   -0.12079E-04   -0.55712E-07   160   0.381E-03    0.764E-04
DAV:   9    -0.273966559795E+02   -0.15085E-04   -0.10158E-06   110   0.452E-03    0.452E-04
DAV:  10    -0.273966631303E+02   -0.71508E-05   -0.36958E-07   140   0.265E-03    0.314E-04
DAV:  11    -0.273966666194E+02   -0.34891E-05   -0.15186E-07   110   0.162E-03    0.227E-04
DAV:  12    -0.273966681048E+02   -0.14854E-05   -0.49927E-08   150   0.897E-04    0.198E-04
DAV:  13    -0.273966688402E+02   -0.73539E-06   -0.22222E-08   120   0.619E-04
  15 F= -.27396669E+02 E0= -.27396669E+02  d E =-.536841E-13
 Finite differences progress:
  Degree of freedom:   7/ 15
  Displacement:        2/  2
  Total:              14/ 30


 VERY BAD NEWS! internal error in subroutine IBZKPT:
 Reciprocal lattice and k-lattice belong to different class of lattices. Often results are still useful...       5


 VERY BAD NEWS! internal error in subroutine IBZKPT:
 Reciprocal lattice and k-lattice belong to different class of lattices. Often results are still useful...       5


 VERY BAD NEWS! internal error in subroutine IBZKPT:
 Reciprocal lattice and k-lattice belong to different class of lattices. Often results are still useful...       5


 VERY BAD NEWS! internal error in subroutine IBZKPT:
 Reciprocal lattice and k-lattice belong to different class of lattices. Often results are still useful...       5


 VERY BAD NEWS! internal error in subroutine IBZKPT:
 Reciprocal lattice and k-lattice belong to different class of lattices. Often results are still useful...       5


 VERY BAD NEWS! internal error in subroutine IBZKPT:
 Reciprocal lattice and k-lattice belong to different class of lattices. Often results are still useful...       5


 VERY BAD NEWS! internal error in subroutine IBZKPT:
 Reciprocal lattice and k-lattice belong to different class of lattices. Often results are still useful...       5


 VERY BAD NEWS! internal error in subroutine IBZKPT:
 Reciprocal lattice and k-lattice belong to different class of lattices. Often results are still useful...       5


 VERY BAD NEWS! internal error in subroutine IBZKPT:
 Reciprocal lattice and k-lattice belong to different class of lattices. Often results are still useful...       5


 VERY BAD NEWS! internal error in subroutine IBZKPT:
 Reciprocal lattice and k-lattice belong to different class of lattices. Often results are still useful...       5
 bond charge predicted
       N       E                     dE             d eps       ncg     rms          rms(c)
DAV:   1    -0.273985721125E+02   -0.19040E-02   -0.30144E-01   100   0.421E+00    0.189E-01
DAV:   2    -0.273983886385E+02    0.18347E-03   -0.21837E-03   130   0.347E-01    0.112E-01
DAV:   3    -0.273983359386E+02    0.52700E-04   -0.41764E-04   120   0.137E-01    0.217E-02
DAV:   4    -0.273983406961E+02   -0.47575E-05   -0.29098E-05   170   0.426E-02    0.878E-03
DAV:   5    -0.273983429811E+02   -0.22850E-05   -0.68435E-06   140   0.180E-02    0.234E-03
DAV:   6    -0.273983463767E+02   -0.33956E-05   -0.54142E-07   170   0.565E-03    0.102E-03
DAV:   7    -0.273983516515E+02   -0.52748E-05   -0.41856E-07   120   0.345E-03    0.507E-04
DAV:   8    -0.273983554894E+02   -0.38380E-05   -0.19887E-07   130   0.209E-03    0.402E-04
DAV:   9    -0.273983597655E+02   -0.42761E-05   -0.34389E-07   120   0.248E-03    0.271E-04
DAV:  10    -0.273983617634E+02   -0.19979E-05   -0.11220E-07   130   0.144E-03    0.215E-04
DAV:  11    -0.273983624979E+02   -0.73453E-06   -0.25454E-08   130   0.682E-04
  16 F= -.27398362E+02 E0= -.27398362E+02  d E =-.768953E-13
 Finite differences progress:
  Degree of freedom:   8/ 15
  Displacement:        1/  2
  Total:              15/ 30


 VERY BAD NEWS! internal error in subroutine IBZKPT:
 Reciprocal lattice and k-lattice belong to different class of lattices. Often results are still useful...       5


 VERY BAD NEWS! internal error in subroutine IBZKPT:
 Reciprocal lattice and k-lattice belong to different class of lattices. Often results are still useful...       5


 VERY BAD NEWS! internal error in subroutine IBZKPT:
 Reciprocal lattice and k-lattice belong to different class of lattices. Often results are still useful...       5


 VERY BAD NEWS! internal error in subroutine IBZKPT:
 Reciprocal lattice and k-lattice belong to different class of lattices. Often results are still useful...       5


 VERY BAD NEWS! internal error in subroutine IBZKPT:
 Reciprocal lattice and k-lattice belong to different class of lattices. Often results are still useful...       5


 VERY BAD NEWS! internal error in subroutine IBZKPT:
 Reciprocal lattice and k-lattice belong to different class of lattices. Often results are still useful...       5


 VERY BAD NEWS! internal error in subroutine IBZKPT:
 Reciprocal lattice and k-lattice belong to different class of lattices. Often results are still useful...       5


 VERY BAD NEWS! internal error in subroutine IBZKPT:
 Reciprocal lattice and k-lattice belong to different class of lattices. Often results are still useful...       5


 VERY BAD NEWS! internal error in subroutine IBZKPT:
 Reciprocal lattice and k-lattice belong to different class of lattices. Often results are still useful...       5


 VERY BAD NEWS! internal error in subroutine IBZKPT:
 Reciprocal lattice and k-lattice belong to different class of lattices. Often results are still useful...       5
 bond charge predicted
       N       E                     dE             d eps       ncg     rms          rms(c)
DAV:   1    -0.273986904837E+02   -0.32872E-03   -0.59669E-01   100   0.594E+00    0.257E-01
DAV:   2    -0.273983960732E+02    0.29441E-03   -0.35865E-03   120   0.457E-01    0.152E-01
DAV:   3    -0.273983138256E+02    0.82248E-04   -0.88960E-04   140   0.198E-01    0.211E-02
DAV:   4    -0.273983175083E+02   -0.36827E-05   -0.58639E-05   140   0.610E-02    0.117E-02
DAV:   5    -0.273983216173E+02   -0.41090E-05   -0.12240E-05   140   0.246E-02    0.279E-03
DAV:   6    -0.273983270522E+02   -0.54349E-05   -0.10806E-06   140   0.774E-03    0.134E-03
DAV:   7    -0.273983362835E+02   -0.92313E-05   -0.84441E-07   120   0.491E-03    0.676E-04
DAV:   8    -0.273983413086E+02   -0.50251E-05   -0.22597E-07   130   0.227E-03    0.531E-04
DAV:   9    -0.273983483363E+02   -0.70276E-05   -0.59562E-07   110   0.330E-03    0.305E-04
DAV:  10    -0.273983514345E+02   -0.30982E-05   -0.19180E-07   140   0.186E-03    0.225E-04
DAV:  11    -0.273983525955E+02   -0.11609E-05   -0.45430E-08   130   0.907E-04    0.201E-04
DAV:  12    -0.273983535943E+02   -0.99881E-06   -0.40406E-08   140   0.823E-04
  17 F= -.27398354E+02 E0= -.27398354E+02  d E =-.578020E-13
 Finite differences progress:
  Degree of freedom:   8/ 15
  Displacement:        2/  2
  Total:              16/ 30


 VERY BAD NEWS! internal error in subroutine IBZKPT:
 Reciprocal lattice and k-lattice belong to different class of lattices. Often results are still useful...       5


 VERY BAD NEWS! internal error in subroutine IBZKPT:
 Reciprocal lattice and k-lattice belong to different class of lattices. Often results are still useful...       5


 VERY BAD NEWS! internal error in subroutine IBZKPT:
 Reciprocal lattice and k-lattice belong to different class of lattices. Often results are still useful...       5


 VERY BAD NEWS! internal error in subroutine IBZKPT:
 Reciprocal lattice and k-lattice belong to different class of lattices. Often results are still useful...       5


 VERY BAD NEWS! internal error in subroutine IBZKPT:
 Reciprocal lattice and k-lattice belong to different class of lattices. Often results are still useful...       5


 VERY BAD NEWS! internal error in subroutine IBZKPT:
 Reciprocal lattice and k-lattice belong to different class of lattices. Often results are still useful...       5


 VERY BAD NEWS! internal error in subroutine IBZKPT:
 Reciprocal lattice and k-lattice belong to different class of lattices. Often results are still useful...       5


 VERY BAD NEWS! internal error in subroutine IBZKPT:
 Reciprocal lattice and k-lattice belong to different class of lattices. Often results are still useful...       5


 VERY BAD NEWS! internal error in subroutine IBZKPT:
 Reciprocal lattice and k-lattice belong to different class of lattices. Often results are still useful...       5


 VERY BAD NEWS! internal error in subroutine IBZKPT:
 Reciprocal lattice and k-lattice belong to different class of lattices. Often results are still useful...       5
 bond charge predicted
       N       E                     dE             d eps       ncg     rms          rms(c)
DAV:   1    -0.273949029118E+02    0.34497E-02   -0.32676E-01   100   0.439E+00    0.247E-01
DAV:   2    -0.273942074245E+02    0.69549E-03   -0.46450E-03   130   0.484E-01    0.140E-01
DAV:   3    -0.273940311168E+02    0.17631E-03   -0.76513E-04   150   0.191E-01    0.487E-02
DAV:   4    -0.273940293698E+02    0.17470E-05   -0.53975E-05   150   0.586E-02    0.151E-02
DAV:   5    -0.273940286895E+02    0.68027E-06   -0.18297E-05   140   0.309E-02    0.356E-03
DAV:   6    -0.273940302596E+02   -0.15701E-05   -0.15025E-06   150   0.912E-03    0.176E-03
DAV:   7    -0.273940324897E+02   -0.22301E-05   -0.33099E-07   130   0.391E-03    0.670E-04
DAV:   8    -0.273940354685E+02   -0.29788E-05   -0.19001E-07   160   0.262E-03    0.526E-04
DAV:   9    -0.273940392536E+02   -0.37851E-05   -0.15448E-07   130   0.190E-03    0.335E-04
DAV:  10    -0.273940421531E+02   -0.28995E-05   -0.11170E-07   150   0.145E-03    0.257E-04
DAV:  11    -0.273940440857E+02   -0.19325E-05   -0.65747E-08   120   0.106E-03    0.215E-04
DAV:  12    -0.273940449081E+02   -0.82245E-06   -0.19861E-08   160   0.591E-04
  18 F= -.27394045E+02 E0= -.27394045E+02  d E =-.536640E-13
 Finite differences progress:
  Degree of freedom:   9/ 15
  Displacement:        1/  2
  Total:              17/ 30


 VERY BAD NEWS! internal error in subroutine IBZKPT:
 Reciprocal lattice and k-lattice belong to different class of lattices. Often results are still useful...       5


 VERY BAD NEWS! internal error in subroutine IBZKPT:
 Reciprocal lattice and k-lattice belong to different class of lattices. Often results are still useful...       5


 VERY BAD NEWS! internal error in subroutine IBZKPT:
 Reciprocal lattice and k-lattice belong to different class of lattices. Often results are still useful...       5


 VERY BAD NEWS! internal error in subroutine IBZKPT:
 Reciprocal lattice and k-lattice belong to different class of lattices. Often results are still useful...       5


 VERY BAD NEWS! internal error in subroutine IBZKPT:
 Reciprocal lattice and k-lattice belong to different class of lattices. Often results are still useful...       5


 VERY BAD NEWS! internal error in subroutine IBZKPT:
 Reciprocal lattice and k-lattice belong to different class of lattices. Often results are still useful...       5


 VERY BAD NEWS! internal error in subroutine IBZKPT:
 Reciprocal lattice and k-lattice belong to different class of lattices. Often results are still useful...       5


 VERY BAD NEWS! internal error in subroutine IBZKPT:
 Reciprocal lattice and k-lattice belong to different class of lattices. Often results are still useful...       5


 VERY BAD NEWS! internal error in subroutine IBZKPT:
 Reciprocal lattice and k-lattice belong to different class of lattices. Often results are still useful...       5


 VERY BAD NEWS! internal error in subroutine IBZKPT:
 Reciprocal lattice and k-lattice belong to different class of lattices. Often results are still useful...       5
 bond charge predicted
       N       E                     dE             d eps       ncg     rms          rms(c)
DAV:   1    -0.273966857344E+02   -0.26416E-02   -0.66207E-01   100   0.628E+00    0.383E-01
DAV:   2    -0.273946434871E+02    0.20422E-02   -0.11716E-02   150   0.765E-01    0.206E-01
DAV:   3    -0.273941973270E+02    0.44616E-03   -0.17022E-03   150   0.282E-01    0.806E-02
DAV:   4    -0.273941728201E+02    0.24507E-04   -0.15197E-04   150   0.977E-02    0.259E-02
DAV:   5    -0.273941761494E+02   -0.33293E-05   -0.49626E-05   150   0.514E-02    0.576E-03
DAV:   6    -0.273941815215E+02   -0.53721E-05   -0.48029E-06   150   0.158E-02    0.294E-03
DAV:   7    -0.273941869299E+02   -0.54084E-05   -0.96610E-07   120   0.682E-03    0.839E-04
DAV:   8    -0.273941916950E+02   -0.47652E-05   -0.32416E-07   130   0.355E-03    0.663E-04
DAV:   9    -0.273941975979E+02   -0.59028E-05   -0.37659E-07   120   0.298E-03    0.385E-04
DAV:  10    -0.273942019181E+02   -0.43202E-05   -0.28901E-07   140   0.234E-03    0.304E-04
DAV:  11    -0.273942045173E+02   -0.25992E-05   -0.13567E-07   140   0.162E-03    0.204E-04
DAV:  12    -0.273942053917E+02   -0.87444E-06   -0.23684E-08   150   0.713E-04
  19 F= -.27394205E+02 E0= -.27394205E+02  d E =-.572638E-13
 Finite differences progress:
  Degree of freedom:   9/ 15
  Displacement:        2/  2
  Total:              18/ 30


 VERY BAD NEWS! internal error in subroutine IBZKPT:
 Reciprocal lattice and k-lattice belong to different class of lattices. Often results are still useful...       5


 VERY BAD NEWS! internal error in subroutine IBZKPT:
 Reciprocal lattice and k-lattice belong to different class of lattices. Often results are still useful...       5


 VERY BAD NEWS! internal error in subroutine IBZKPT:
 Reciprocal lattice and k-lattice belong to different class of lattices. Often results are still useful...       5


 VERY BAD NEWS! internal error in subroutine IBZKPT:
 Reciprocal lattice and k-lattice belong to different class of lattices. Often results are still useful...       5


 VERY BAD NEWS! internal error in subroutine IBZKPT:
 Reciprocal lattice and k-lattice belong to different class of lattices. Often results are still useful...       5


 VERY BAD NEWS! internal error in subroutine IBZKPT:
 Reciprocal lattice and k-lattice belong to different class of lattices. Often results are still useful...       5


 VERY BAD NEWS! internal error in subroutine IBZKPT:
 Reciprocal lattice and k-lattice belong to different class of lattices. Often results are still useful...       5


 VERY BAD NEWS! internal error in subroutine IBZKPT:
 Reciprocal lattice and k-lattice belong to different class of lattices. Often results are still useful...       5


 VERY BAD NEWS! internal error in subroutine IBZKPT:
 Reciprocal lattice and k-lattice belong to different class of lattices. Often results are still useful...       5


 VERY BAD NEWS! internal error in subroutine IBZKPT:
 Reciprocal lattice and k-lattice belong to different class of lattices. Often results are still useful...       5
 bond charge predicted
       N       E                     dE             d eps       ncg     rms          rms(c)
DAV:   1    -0.273950755416E+02   -0.87102E-03   -0.34819E-01   100   0.490E+00    0.293E-01
DAV:   2    -0.273935757552E+02    0.14998E-02   -0.10818E-02   160   0.712E-01    0.155E-01
DAV:   3    -0.273933064946E+02    0.26926E-03   -0.11547E-03   150   0.208E-01    0.694E-02
DAV:   4    -0.273932865891E+02    0.19905E-04   -0.99600E-05   140   0.644E-02    0.243E-02
DAV:   5    -0.273932819783E+02    0.46108E-05   -0.26091E-05   140   0.388E-02    0.457E-03
DAV:   6    -0.273932834480E+02   -0.14697E-05   -0.27781E-06   160   0.127E-02    0.247E-03
DAV:   7    -0.273932890843E+02   -0.56363E-05   -0.76943E-07   140   0.633E-03    0.983E-04
DAV:   8    -0.273932948674E+02   -0.57831E-05   -0.34800E-07   150   0.340E-03    0.668E-04
DAV:   9    -0.273933035632E+02   -0.86958E-05   -0.47149E-07   130   0.312E-03    0.351E-04
DAV:  10    -0.273933085086E+02   -0.49454E-05   -0.21521E-07   150   0.190E-03    0.272E-04
DAV:  11    -0.273933123096E+02   -0.38010E-05   -0.18573E-07   130   0.165E-03    0.211E-04
DAV:  12    -0.273933132577E+02   -0.94804E-06   -0.21777E-08   160   0.595E-04
  20 F= -.27393313E+02 E0= -.27393313E+02  d E =-.798348E-14
 Finite differences progress:
  Degree of freedom:  10/ 15
  Displacement:        1/  2
  Total:              19/ 30


 VERY BAD NEWS! internal error in subroutine IBZKPT:
 Reciprocal lattice and k-lattice belong to different class of lattices. Often results are still useful...       5


 VERY BAD NEWS! internal error in subroutine IBZKPT:
 Reciprocal lattice and k-lattice belong to different class of lattices. Often results are still useful...       5


 VERY BAD NEWS! internal error in subroutine IBZKPT:
 Reciprocal lattice and k-lattice belong to different class of lattices. Often results are still useful...       5


 VERY BAD NEWS! internal error in subroutine IBZKPT:
 Reciprocal lattice and k-lattice belong to different class of lattices. Often results are still useful...       5


 VERY BAD NEWS! internal error in subroutine IBZKPT:
 Reciprocal lattice and k-lattice belong to different class of lattices. Often results are still useful...       5


 VERY BAD NEWS! internal error in subroutine IBZKPT:
 Reciprocal lattice and k-lattice belong to different class of lattices. Often results are still useful...       5


 VERY BAD NEWS! internal error in subroutine IBZKPT:
 Reciprocal lattice and k-lattice belong to different class of lattices. Often results are still useful...       5


 VERY BAD NEWS! internal error in subroutine IBZKPT:
 Reciprocal lattice and k-lattice belong to different class of lattices. Often results are still useful...       5


 VERY BAD NEWS! internal error in subroutine IBZKPT:
 Reciprocal lattice and k-lattice belong to different class of lattices. Often results are still useful...       5


 VERY BAD NEWS! internal error in subroutine IBZKPT:
 Reciprocal lattice and k-lattice belong to different class of lattices. Often results are still useful...       5
 bond charge predicted
       N       E                     dE             d eps       ncg     rms          rms(c)
DAV:   1    -0.273967157560E+02   -0.34034E-02   -0.67742E-01   100   0.675E+00    0.403E-01
DAV:   2    -0.273943992490E+02    0.23165E-02   -0.14568E-02   150   0.835E-01    0.216E-01
DAV:   3    -0.273939017411E+02    0.49751E-03   -0.16999E-03   140   0.271E-01    0.878E-02
DAV:   4    -0.273938650237E+02    0.36717E-04   -0.15939E-04   160   0.933E-02    0.263E-02
DAV:   5    -0.273938714489E+02   -0.64252E-05   -0.50963E-05   140   0.519E-02    0.590E-03
DAV:   6    -0.273938786005E+02   -0.71516E-05   -0.44232E-06   150   0.150E-02    0.334E-03
DAV:   7    -0.273938921203E+02   -0.13520E-04   -0.16940E-06   120   0.861E-03    0.126E-03
DAV:   8    -0.273939032698E+02   -0.11150E-04   -0.93073E-07   150   0.514E-03    0.945E-04
DAV:   9    -0.273939156556E+02   -0.12386E-04   -0.12006E-06   140   0.500E-03    0.574E-04
DAV:  10    -0.273939215690E+02   -0.59134E-05   -0.47482E-07   150   0.311E-03    0.391E-04
DAV:  11    -0.273939255445E+02   -0.39754E-05   -0.29189E-07   140   0.219E-03    0.227E-04
DAV:  12    -0.273939265723E+02   -0.10279E-05   -0.30605E-08   140   0.716E-04    0.197E-04
DAV:  13    -0.273939274590E+02   -0.88665E-06   -0.37667E-08   100   0.756E-04
  21 F= -.27393927E+02 E0= -.27393927E+02  d E =-.411970E-12
 Finite differences progress:
  Degree of freedom:  10/ 15
  Displacement:        2/  2
  Total:              20/ 30


 VERY BAD NEWS! internal error in subroutine IBZKPT:
 Reciprocal lattice and k-lattice belong to different class of lattices. Often results are still useful...       5


 VERY BAD NEWS! internal error in subroutine IBZKPT:
 Reciprocal lattice and k-lattice belong to different class of lattices. Often results are still useful...       5


 VERY BAD NEWS! internal error in subroutine IBZKPT:
 Reciprocal lattice and k-lattice belong to different class of lattices. Often results are still useful...       5


 VERY BAD NEWS! internal error in subroutine IBZKPT:
 Reciprocal lattice and k-lattice belong to different class of lattices. Often results are still useful...       5


 VERY BAD NEWS! internal error in subroutine IBZKPT:
 Reciprocal lattice and k-lattice belong to different class of lattices. Often results are still useful...       5


 VERY BAD NEWS! internal error in subroutine IBZKPT:
 Reciprocal lattice and k-lattice belong to different class of lattices. Often results are still useful...       5


 VERY BAD NEWS! internal error in subroutine IBZKPT:
 Reciprocal lattice and k-lattice belong to different class of lattices. Often results are still useful...       5


 VERY BAD NEWS! internal error in subroutine IBZKPT:
 Reciprocal lattice and k-lattice belong to different class of lattices. Often results are still useful...       5


 VERY BAD NEWS! internal error in subroutine IBZKPT:
 Reciprocal lattice and k-lattice belong to different class of lattices. Often results are still useful...       5


 VERY BAD NEWS! internal error in subroutine IBZKPT:
 Reciprocal lattice and k-lattice belong to different class of lattices. Often results are still useful...       5
 bond charge predicted
       N       E                     dE             d eps       ncg     rms          rms(c)
DAV:   1    -0.273983794075E+02   -0.44528E-02   -0.30490E-01   100   0.457E+00    0.200E-01
DAV:   2    -0.273980726827E+02    0.30672E-03   -0.25112E-03   110   0.383E-01    0.115E-01
DAV:   3    -0.273979776243E+02    0.95058E-04   -0.48171E-04   120   0.146E-01    0.296E-02
DAV:   4    -0.273979771589E+02    0.46536E-06   -0.28194E-05   140   0.423E-02    0.104E-02
DAV:   5    -0.273979750702E+02    0.20888E-05   -0.91065E-06   110   0.212E-02    0.275E-03
DAV:   6    -0.273979772720E+02   -0.22018E-05   -0.90035E-07   170   0.680E-03    0.132E-03
DAV:   7    -0.273979808061E+02   -0.35341E-05   -0.28529E-07   120   0.325E-03    0.620E-04
DAV:   8    -0.273979869918E+02   -0.61857E-05   -0.34792E-07   130   0.284E-03    0.539E-04
DAV:   9    -0.273979928010E+02   -0.58093E-05   -0.30849E-07   120   0.226E-03    0.319E-04
DAV:  10    -0.273979964940E+02   -0.36929E-05   -0.15783E-07   120   0.154E-03    0.231E-04
DAV:  11    -0.273979983827E+02   -0.18887E-05   -0.64689E-08   130   0.967E-04    0.196E-04
DAV:  12    -0.273979993858E+02   -0.10031E-05   -0.29278E-08   130   0.663E-04    0.186E-04
DAV:  13    -0.273979998018E+02   -0.41594E-06   -0.11371E-08   130   0.433E-04
  22 F= -.27398000E+02 E0= -.27398000E+02  d E =-.113819E-12
 Finite differences progress:
  Degree of freedom:  11/ 15
  Displacement:        1/  2
  Total:              21/ 30


 VERY BAD NEWS! internal error in subroutine IBZKPT:
 Reciprocal lattice and k-lattice belong to different class of lattices. Often results are still useful...       5


 VERY BAD NEWS! internal error in subroutine IBZKPT:
 Reciprocal lattice and k-lattice belong to different class of lattices. Often results are still useful...       5


 VERY BAD NEWS! internal error in subroutine IBZKPT:
 Reciprocal lattice and k-lattice belong to different class of lattices. Often results are still useful...       5


 VERY BAD NEWS! internal error in subroutine IBZKPT:
 Reciprocal lattice and k-lattice belong to different class of lattices. Often results are still useful...       5


 VERY BAD NEWS! internal error in subroutine IBZKPT:
 Reciprocal lattice and k-lattice belong to different class of lattices. Often results are still useful...       5


 VERY BAD NEWS! internal error in subroutine IBZKPT:
 Reciprocal lattice and k-lattice belong to different class of lattices. Often results are still useful...       5


 VERY BAD NEWS! internal error in subroutine IBZKPT:
 Reciprocal lattice and k-lattice belong to different class of lattices. Often results are still useful...       5


 VERY BAD NEWS! internal error in subroutine IBZKPT:
 Reciprocal lattice and k-lattice belong to different class of lattices. Often results are still useful...       5


 VERY BAD NEWS! internal error in subroutine IBZKPT:
 Reciprocal lattice and k-lattice belong to different class of lattices. Often results are still useful...       5


 VERY BAD NEWS! internal error in subroutine IBZKPT:
 Reciprocal lattice and k-lattice belong to different class of lattices. Often results are still useful...       5
 bond charge predicted
       N       E                     dE             d eps       ncg     rms          rms(c)
DAV:   1    -0.273986563685E+02   -0.65698E-03   -0.60917E-01   100   0.649E+00    0.279E-01
DAV:   2    -0.273981177007E+02    0.53867E-03   -0.39825E-03   110   0.499E-01    0.160E-01
DAV:   3    -0.273979729596E+02    0.14474E-03   -0.96175E-04   140   0.207E-01    0.322E-02
DAV:   4    -0.273979763158E+02   -0.33562E-05   -0.52904E-05   170   0.593E-02    0.136E-02
DAV:   5    -0.273979746069E+02    0.17089E-05   -0.15203E-05   130   0.266E-02    0.361E-03
DAV:   6    -0.273979788963E+02   -0.42894E-05   -0.12205E-06   130   0.808E-03    0.164E-03
DAV:   7    -0.273979861154E+02   -0.72191E-05   -0.61411E-07   120   0.471E-03    0.834E-04
DAV:   8    -0.273979957028E+02   -0.95873E-05   -0.54973E-07   130   0.325E-03    0.570E-04
DAV:   9    -0.273980037701E+02   -0.80674E-05   -0.52969E-07   120   0.285E-03    0.377E-04
DAV:  10    -0.273980086786E+02   -0.49084E-05   -0.25184E-07   130   0.198E-03    0.239E-04
DAV:  11    -0.273980106640E+02   -0.19855E-05   -0.63537E-08   150   0.103E-03    0.208E-04
DAV:  12    -0.273980121168E+02   -0.14528E-05   -0.48321E-08   140   0.895E-04    0.190E-04
DAV:  13    -0.273980125475E+02   -0.43070E-06   -0.10153E-08   160   0.432E-04
  23 F= -.27398013E+02 E0= -.27398013E+02  d E =-.325632E-13
 Finite differences progress:
  Degree of freedom:  11/ 15
  Displacement:        2/  2
  Total:              22/ 30


 VERY BAD NEWS! internal error in subroutine IBZKPT:
 Reciprocal lattice and k-lattice belong to different class of lattices. Often results are still useful...       5


 VERY BAD NEWS! internal error in subroutine IBZKPT:
 Reciprocal lattice and k-lattice belong to different class of lattices. Often results are still useful...       5


 VERY BAD NEWS! internal error in subroutine IBZKPT:
 Reciprocal lattice and k-lattice belong to different class of lattices. Often results are still useful...       5


 VERY BAD NEWS! internal error in subroutine IBZKPT:
 Reciprocal lattice and k-lattice belong to different class of lattices. Often results are still useful...       5


 VERY BAD NEWS! internal error in subroutine IBZKPT:
 Reciprocal lattice and k-lattice belong to different class of lattices. Often results are still useful...       5


 VERY BAD NEWS! internal error in subroutine IBZKPT:
 Reciprocal lattice and k-lattice belong to different class of lattices. Often results are still useful...       5


 VERY BAD NEWS! internal error in subroutine IBZKPT:
 Reciprocal lattice and k-lattice belong to different class of lattices. Often results are still useful...       5


 VERY BAD NEWS! internal error in subroutine IBZKPT:
 Reciprocal lattice and k-lattice belong to different class of lattices. Often results are still useful...       5


 VERY BAD NEWS! internal error in subroutine IBZKPT:
 Reciprocal lattice and k-lattice belong to different class of lattices. Often results are still useful...       5


 VERY BAD NEWS! internal error in subroutine IBZKPT:
 Reciprocal lattice and k-lattice belong to different class of lattices. Often results are still useful...       5
 bond charge predicted
       N       E                     dE             d eps       ncg     rms          rms(c)
DAV:   1    -0.273979975248E+02    0.14592E-04   -0.29540E-01   100   0.454E+00    0.175E-01
DAV:   2    -0.273978920680E+02    0.10546E-03   -0.18563E-03   120   0.342E-01    0.104E-01
DAV:   3    -0.273978588996E+02    0.33168E-04   -0.32072E-04   160   0.128E-01    0.185E-02
DAV:   4    -0.273978626870E+02   -0.37874E-05   -0.19570E-05   150   0.356E-02    0.735E-03
DAV:   5    -0.273978669697E+02   -0.42827E-05   -0.36841E-06   140   0.138E-02    0.170E-03
DAV:   6    -0.273978716461E+02   -0.46764E-05   -0.70479E-07   130   0.585E-03    0.989E-04
DAV:   7    -0.273978761966E+02   -0.45505E-05   -0.23661E-07   140   0.274E-03    0.543E-04
DAV:   8    -0.273978830233E+02   -0.68268E-05   -0.55909E-07   130   0.315E-03    0.379E-04
DAV:   9    -0.273978867874E+02   -0.37641E-05   -0.25809E-07   130   0.207E-03    0.277E-04
DAV:  10    -0.273978891363E+02   -0.23489E-05   -0.16853E-07   120   0.162E-03    0.216E-04
DAV:  11    -0.273978898506E+02   -0.71436E-06   -0.23890E-08   160   0.675E-04
  24 F= -.27397890E+02 E0= -.27397890E+02  d E =-.710532E-12
 Finite differences progress:
  Degree of freedom:  12/ 15
  Displacement:        1/  2
  Total:              23/ 30


 VERY BAD NEWS! internal error in subroutine IBZKPT:
 Reciprocal lattice and k-lattice belong to different class of lattices. Often results are still useful...       5


 VERY BAD NEWS! internal error in subroutine IBZKPT:
 Reciprocal lattice and k-lattice belong to different class of lattices. Often results are still useful...       5


 VERY BAD NEWS! internal error in subroutine IBZKPT:
[...]


 VERY BAD NEWS! internal error in subroutine IBZKPT:
 Reciprocal lattice and k-lattice belong to different class of lattices. Often results are still useful...       5


 VERY BAD NEWS! internal error in subroutine IBZKPT:
 Reciprocal lattice and k-lattice belong to different class of lattices. Often results are still useful...       5


 VERY BAD NEWS! internal error in subroutine IBZKPT:
 Reciprocal lattice and k-lattice belong to different class of lattices. Often results are still useful...       5
 bond charge predicted
       N       E                     dE             d eps       ncg     rms          rms(c)
DAV:   1    -0.273959235239E+02    0.19958E-02   -0.29140E-01   100   0.486E+00    0.206E-01
DAV:   2    -0.273957410090E+02    0.18251E-03   -0.50260E-03   150   0.583E-01    0.115E-01
DAV:   3    -0.273957049944E+02    0.36015E-04   -0.28786E-04   150   0.142E-01    0.545E-02
DAV:   4    -0.273957142272E+02   -0.92328E-05   -0.72571E-05   160   0.647E-02    0.111E-02
DAV:   5    -0.273957163009E+02   -0.20737E-05   -0.16476E-05   150   0.292E-02    0.442E-03
DAV:   6    -0.273957197707E+02   -0.34698E-05   -0.18705E-06   130   0.112E-02    0.249E-03
DAV:   7    -0.273957263948E+02   -0.66241E-05   -0.78660E-07   150   0.633E-03    0.968E-04
DAV:   8    -0.273957338091E+02   -0.74143E-05   -0.40947E-07   160   0.359E-03    0.793E-04
DAV:   9    -0.273957415045E+02   -0.76954E-05   -0.43894E-07   140   0.294E-03    0.481E-04
DAV:  10    -0.273957452599E+02   -0.37554E-05   -0.20380E-07   170   0.203E-03    0.328E-04
DAV:  11    -0.273957476628E+02   -0.24029E-05   -0.92473E-08   140   0.124E-03    0.246E-04
DAV:  12    -0.273957488330E+02   -0.11702E-05   -0.44645E-08   150   0.896E-04    0.196E-04
DAV:  13    -0.273957494211E+02   -0.58803E-06   -0.15859E-08   130   0.525E-04
  26 F= -.27395749E+02 E0= -.27395749E+02  d E =-.125422E-10
 Finite differences progress:
  Degree of freedom:  13/ 15
  Displacement:        1/  2
  Total:              25/ 30


 VERY BAD NEWS! internal error in subroutine IBZKPT:
 Reciprocal lattice and k-lattice belong to different class of lattices. Often results are still useful...       5


 VERY BAD NEWS! internal error in subroutine IBZKPT:
 Reciprocal lattice and k-lattice belong to different class of lattices. Often results are still useful...       5


 VERY BAD NEWS! internal error in subroutine IBZKPT:
 Reciprocal lattice and k-lattice belong to different class of lattices. Often results are still useful...       5


 VERY BAD NEWS! internal error in subroutine IBZKPT:
 Reciprocal lattice and k-lattice belong to different class of lattices. Often results are still useful...       5


 VERY BAD NEWS! internal error in subroutine IBZKPT:
 Reciprocal lattice and k-lattice belong to different class of lattices. Often results are still useful...       5


 VERY BAD NEWS! internal error in subroutine IBZKPT:
 Reciprocal lattice and k-lattice belong to different class of lattices. Often results are still useful...       5


 VERY BAD NEWS! internal error in subroutine IBZKPT:
 Reciprocal lattice and k-lattice belong to different class of lattices. Often results are still useful...       5


 VERY BAD NEWS! internal error in subroutine IBZKPT:
 Reciprocal lattice and k-lattice belong to different class of lattices. Often results are still useful...       5


 VERY BAD NEWS! internal error in subroutine IBZKPT:
 Reciprocal lattice and k-lattice belong to different class of lattices. Often results are still useful...       5


 VERY BAD NEWS! internal error in subroutine IBZKPT:
 Reciprocal lattice and k-lattice belong to different class of lattices. Often results are still useful...       5
 bond charge predicted
       N       E                     dE             d eps       ncg     rms          rms(c)
DAV:   1    -0.273969429672E+02   -0.11941E-02   -0.58676E-01   100   0.714E+00    0.354E-01
DAV:   2    -0.273960245887E+02    0.91838E-03   -0.14881E-02   140   0.976E-01    0.181E-01
DAV:   3    -0.273959304146E+02    0.94174E-04   -0.69033E-04   150   0.210E-01    0.961E-02
DAV:   4    -0.273959425230E+02   -0.12108E-04   -0.23482E-04   170   0.111E-01    0.176E-02
DAV:   5    -0.273959577398E+02   -0.15217E-04   -0.50021E-05   140   0.488E-02    0.708E-03
DAV:   6    -0.273959768343E+02   -0.19095E-04   -0.48122E-06   120   0.162E-02    0.392E-03
DAV:   7    -0.273960014666E+02   -0.24632E-04   -0.29162E-06   110   0.109E-02    0.157E-03
DAV:   8    -0.273960259085E+02   -0.24442E-04   -0.23798E-06   120   0.828E-03    0.141E-03
DAV:   9    -0.273960448284E+02   -0.18920E-04   -0.18567E-06   130   0.644E-03    0.691E-04
DAV:  10    -0.273960527336E+02   -0.79051E-05   -0.60037E-07   150   0.361E-03    0.552E-04
DAV:  11    -0.273960577972E+02   -0.50636E-05   -0.31692E-07   130   0.245E-03    0.308E-04
DAV:  12    -0.273960594820E+02   -0.16848E-05   -0.70583E-08   150   0.125E-03    0.221E-04
DAV:  13    -0.273960608194E+02   -0.13374E-05   -0.53532E-08   130   0.930E-04    0.198E-04
DAV:  14    -0.273960612056E+02   -0.38619E-06   -0.69323E-09   160   0.390E-04
  27 F= -.27396061E+02 E0= -.27396061E+02  d E =-.767806E-15
 Finite differences progress:
  Degree of freedom:  13/ 15
  Displacement:        2/  2
  Total:              26/ 30


 VERY BAD NEWS! internal error in subroutine IBZKPT:
 Reciprocal lattice and k-lattice belong to different class of lattices. Often results are still useful...       5


 VERY BAD NEWS! internal error in subroutine IBZKPT:
 Reciprocal lattice and k-lattice belong to different class of lattices. Often results are still useful...       5


 VERY BAD NEWS! internal error in subroutine IBZKPT:
 Reciprocal lattice and k-lattice belong to different class of lattices. Often results are still useful...       5


 VERY BAD NEWS! internal error in subroutine IBZKPT:
 Reciprocal lattice and k-lattice belong to different class of lattices. Often results are still useful...       5


 VERY BAD NEWS! internal error in subroutine IBZKPT:
 Reciprocal lattice and k-lattice belong to different class of lattices. Often results are still useful...       5


 VERY BAD NEWS! internal error in subroutine IBZKPT:
 Reciprocal lattice and k-lattice belong to different class of lattices. Often results are still useful...       5


 VERY BAD NEWS! internal error in subroutine IBZKPT:
 Reciprocal lattice and k-lattice belong to different class of lattices. Often results are still useful...       5


 VERY BAD NEWS! internal error in subroutine IBZKPT:
 Reciprocal lattice and k-lattice belong to different class of lattices. Often results are still useful...       5


 VERY BAD NEWS! internal error in subroutine IBZKPT:
 Reciprocal lattice and k-lattice belong to different class of lattices. Often results are still useful...       5


 VERY BAD NEWS! internal error in subroutine IBZKPT:
 Reciprocal lattice and k-lattice belong to different class of lattices. Often results are still useful...       5
 bond charge predicted
       N       E                     dE             d eps       ncg     rms          rms(c)
DAV:   1    -0.273981337989E+02   -0.20730E-02   -0.28078E-01   100   0.499E+00    0.175E-01
DAV:   2    -0.273981659015E+02   -0.32103E-04   -0.31008E-03   130   0.518E-01    0.106E-01
DAV:   3    -0.273981681873E+02   -0.22858E-05   -0.15000E-04   130   0.104E-01    0.444E-02
DAV:   4    -0.273981781661E+02   -0.99789E-05   -0.38227E-05   170   0.506E-02    0.804E-03
DAV:   5    -0.273981844881E+02   -0.63219E-05   -0.93237E-06   140   0.210E-02    0.363E-03
DAV:   6    -0.273981928671E+02   -0.83791E-05   -0.15426E-06   130   0.897E-03    0.171E-03
DAV:   7    -0.273982053105E+02   -0.12443E-04   -0.82618E-07   110   0.521E-03    0.945E-04
DAV:   8    -0.273982198336E+02   -0.14523E-04   -0.95248E-07   130   0.442E-03    0.771E-04
DAV:   9    -0.273982304230E+02   -0.10589E-04   -0.69162E-07   150   0.353E-03    0.344E-04
DAV:  10    -0.273982353444E+02   -0.49215E-05   -0.25207E-07   140   0.218E-03    0.353E-04
DAV:  11    -0.273982372588E+02   -0.19144E-05   -0.52549E-08   160   0.108E-03    0.205E-04
DAV:  12    -0.273982387617E+02   -0.15029E-05   -0.62096E-08   130   0.105E-03    0.191E-04
DAV:  13    -0.273982391964E+02   -0.43468E-06   -0.91983E-09   140   0.413E-04
  28 F= -.27398239E+02 E0= -.27398239E+02  d E =-.104404E-13
 Finite differences progress:
  Degree of freedom:  14/ 15
  Displacement:        1/  2
  Total:              27/ 30


 VERY BAD NEWS! internal error in subroutine IBZKPT:
 Reciprocal lattice and k-lattice belong to different class of lattices. Often results are still useful...       5


 VERY BAD NEWS! internal error in subroutine IBZKPT:
 Reciprocal lattice and k-lattice belong to different class of lattices. Often results are still useful...       5


 VERY BAD NEWS! internal error in subroutine IBZKPT:
 Reciprocal lattice and k-lattice belong to different class of lattices. Often results are still useful...       5


 VERY BAD NEWS! internal error in subroutine IBZKPT:
 Reciprocal lattice and k-lattice belong to different class of lattices. Often results are still useful...       5


 VERY BAD NEWS! internal error in subroutine IBZKPT:
 Reciprocal lattice and k-lattice belong to different class of lattices. Often results are still useful...       5


 VERY BAD NEWS! internal error in subroutine IBZKPT:
 Reciprocal lattice and k-lattice belong to different class of lattices. Often results are still useful...       5


 VERY BAD NEWS! internal error in subroutine IBZKPT:
 Reciprocal lattice and k-lattice belong to different class of lattices. Often results are still useful...       5


 VERY BAD NEWS! internal error in subroutine IBZKPT:
 Reciprocal lattice and k-lattice belong to different class of lattices. Often results are still useful...       5


 VERY BAD NEWS! internal error in subroutine IBZKPT:
 Reciprocal lattice and k-lattice belong to different class of lattices. Often results are still useful...       5


 VERY BAD NEWS! internal error in subroutine IBZKPT:
 Reciprocal lattice and k-lattice belong to different class of lattices. Often results are still useful...       5
 bond charge predicted
       N       E                     dE             d eps       ncg     rms          rms(c)
DAV:   1    -0.273977957915E+02    0.44297E-03   -0.55886E-01   100   0.706E+00    0.232E-01
DAV:   2    -0.273980044012E+02   -0.20861E-03   -0.46837E-03   140   0.668E-01    0.145E-01
DAV:   3    -0.273980449858E+02   -0.40585E-04   -0.27293E-04   130   0.137E-01    0.428E-02
DAV:   4    -0.273980623697E+02   -0.17384E-04   -0.41063E-05   160   0.562E-02    0.984E-03
DAV:   5    -0.273980791604E+02   -0.16791E-04   -0.11770E-05   150   0.236E-02    0.350E-03
DAV:   6    -0.273980973913E+02   -0.18231E-04   -0.25220E-06   120   0.108E-02    0.197E-03
DAV:   7    -0.273981150568E+02   -0.17665E-04   -0.91726E-07   120   0.554E-03    0.116E-03
DAV:   8    -0.273981413881E+02   -0.26331E-04   -0.20880E-06   120   0.669E-03    0.898E-04
DAV:   9    -0.273981579819E+02   -0.16594E-04   -0.11883E-06   120   0.457E-03    0.413E-04
DAV:  10    -0.273981662189E+02   -0.82369E-05   -0.48457E-07   140   0.283E-03    0.364E-04
DAV:  11    -0.273981695958E+02   -0.33769E-05   -0.11572E-07   150   0.147E-03    0.227E-04
DAV:  12    -0.273981717787E+02   -0.21829E-05   -0.11340E-07   140   0.136E-03    0.210E-04
DAV:  13    -0.273981723254E+02   -0.54676E-06   -0.12930E-08   140   0.484E-04
  29 F= -.27398172E+02 E0= -.27398172E+02  d E =-.441944E-12
 Finite differences progress:
  Degree of freedom:  14/ 15
  Displacement:        2/  2
  Total:              28/ 30


 VERY BAD NEWS! internal error in subroutine IBZKPT:
 Reciprocal lattice and k-lattice belong to different class of lattices. Often results are still useful...       5


 VERY BAD NEWS! internal error in subroutine IBZKPT:
 Reciprocal lattice and k-lattice belong to different class of lattices. Often results are still useful...       5


 VERY BAD NEWS! internal error in subroutine IBZKPT:
 Reciprocal lattice and k-lattice belong to different class of lattices. Often results are still useful...       5


 VERY BAD NEWS! internal error in subroutine IBZKPT:
 Reciprocal lattice and k-lattice belong to different class of lattices. Often results are still useful...       5


 VERY BAD NEWS! internal error in subroutine IBZKPT:
 Reciprocal lattice and k-lattice belong to different class of lattices. Often results are still useful...       5


 VERY BAD NEWS! internal error in subroutine IBZKPT:
 Reciprocal lattice and k-lattice belong to different class of lattices. Often results are still useful...       5


 VERY BAD NEWS! internal error in subroutine IBZKPT:
 Reciprocal lattice and k-lattice belong to different class of lattices. Often results are still useful...       5


 VERY BAD NEWS! internal error in subroutine IBZKPT:
 Reciprocal lattice and k-lattice belong to different class of lattices. Often results are still useful...       5


 VERY BAD NEWS! internal error in subroutine IBZKPT:
 Reciprocal lattice and k-lattice belong to different class of lattices. Often results are still useful...       5


 VERY BAD NEWS! internal error in subroutine IBZKPT:
 Reciprocal lattice and k-lattice belong to different class of lattices. Often results are still useful...       5
 bond charge predicted
       N       E                     dE             d eps       ncg     rms          rms(c)
DAV:   1    -0.273945149281E+02    0.36569E-02   -0.30259E-01   100   0.513E+00    0.260E-01
DAV:   2    -0.273940647752E+02    0.45015E-03   -0.88095E-03   150   0.767E-01    0.138E-01
DAV:   3    -0.273939675821E+02    0.97193E-04   -0.34800E-04   120   0.159E-01    0.740E-02
DAV:   4    -0.273939698841E+02   -0.23020E-05   -0.18964E-04   160   0.115E-01    0.129E-02
DAV:   5    -0.273939720169E+02   -0.21328E-05   -0.34171E-05   130   0.463E-02    0.662E-03
DAV:   6    -0.273939763361E+02   -0.43192E-05   -0.21189E-06   130   0.120E-02    0.372E-03
DAV:   7    -0.273939838838E+02   -0.75477E-05   -0.96056E-07   130   0.666E-03    0.124E-03
DAV:   8    -0.273939935751E+02   -0.96913E-05   -0.77013E-07   120   0.460E-03    0.820E-04
DAV:   9    -0.273939990905E+02   -0.55154E-05   -0.35434E-07   150   0.299E-03    0.712E-04
DAV:  10    -0.273940040607E+02   -0.49702E-05   -0.30269E-07   120   0.253E-03    0.324E-04
DAV:  11    -0.273940070295E+02   -0.29688E-05   -0.17550E-07   140   0.183E-03    0.314E-04
DAV:  12    -0.273940081318E+02   -0.11023E-05   -0.33902E-08   150   0.812E-04    0.221E-04
DAV:  13    -0.273940091171E+02   -0.98530E-06   -0.36772E-08   130   0.818E-04
  30 F= -.27394009E+02 E0= -.27394009E+02  d E =-.113357E-11
 Finite differences progress:
  Degree of freedom:  15/ 15
  Displacement:        1/  2
  Total:              29/ 30


 VERY BAD NEWS! internal error in subroutine IBZKPT:
 Reciprocal lattice and k-lattice belong to different class of lattices. Often results are still useful...       5


 VERY BAD NEWS! internal error in subroutine IBZKPT:
 Reciprocal lattice and k-lattice belong to different class of lattices. Often results are still useful...       5


 VERY BAD NEWS! internal error in subroutine IBZKPT:
 Reciprocal lattice and k-lattice belong to different class of lattices. Often results are still useful...       5


 VERY BAD NEWS! internal error in subroutine IBZKPT:
 Reciprocal lattice and k-lattice belong to different class of lattices. Often results are still useful...       5


 VERY BAD NEWS! internal error in subroutine IBZKPT:
 Reciprocal lattice and k-lattice belong to different class of lattices. Often results are still useful...       5


 VERY BAD NEWS! internal error in subroutine IBZKPT:
 Reciprocal lattice and k-lattice belong to different class of lattices. Often results are still useful...       5


 VERY BAD NEWS! internal error in subroutine IBZKPT:
 Reciprocal lattice and k-lattice belong to different class of lattices. Often results are still useful...       5


 VERY BAD NEWS! internal error in subroutine IBZKPT:
 Reciprocal lattice and k-lattice belong to different class of lattices. Often results are still useful...       5


 VERY BAD NEWS! internal error in subroutine IBZKPT:
 Reciprocal lattice and k-lattice belong to different class of lattices. Often results are still useful...       5


 VERY BAD NEWS! internal error in subroutine IBZKPT:
 Reciprocal lattice and k-lattice belong to different class of lattices. Often results are still useful...       5
 bond charge predicted
       N       E                     dE             d eps       ncg     rms          rms(c)
DAV:   1    -0.273949823776E+02   -0.97425E-03   -0.62907E-01   100   0.734E+00    0.406E-01
DAV:   2    -0.273936795389E+02    0.13028E-02   -0.21465E-02   150   0.120E+00    0.214E-01
DAV:   3    -0.273934039454E+02    0.27559E-03   -0.10294E-03   130   0.264E-01    0.114E-01
DAV:   4    -0.273933951877E+02    0.87577E-05   -0.47584E-04   150   0.190E-01    0.206E-02
DAV:   5    -0.273934028573E+02   -0.76696E-05   -0.87053E-05   160   0.766E-02    0.109E-02
DAV:   6    -0.273934113113E+02   -0.84540E-05   -0.41389E-06   130   0.171E-02    0.646E-03
DAV:   7    -0.273934253826E+02   -0.14071E-04   -0.28460E-06   140   0.124E-02    0.193E-03
DAV:   8    -0.273934391327E+02   -0.13750E-04   -0.11021E-06   120   0.648E-03    0.101E-03
DAV:   9    -0.273934494110E+02   -0.10278E-04   -0.65873E-07   130   0.441E-03    0.981E-04
DAV:  10    -0.273934592867E+02   -0.98758E-05   -0.67743E-07   110   0.427E-03    0.432E-04
DAV:  11    -0.273934654192E+02   -0.61324E-05   -0.44982E-07   120   0.295E-03    0.404E-04
DAV:  12    -0.273934674706E+02   -0.20514E-05   -0.88732E-08   140   0.131E-03    0.256E-04
DAV:  13    -0.273934688958E+02   -0.14253E-05   -0.54594E-08   120   0.101E-03    0.216E-04
DAV:  14    -0.273934693485E+02   -0.45270E-06   -0.89164E-09   140   0.428E-04
  31 F= -.27393469E+02 E0= -.27393469E+02  d E =-.801810E-14
 Finite differences progress:
  Degree of freedom:  15/ 15
  Displacement:        2/  2
  Total:              30/ 30
 Finite differences POTIM=  2.000000000000000E-002


 VERY BAD NEWS! internal error in subroutine IBZKPT:
 Reciprocal lattice and k-lattice belong to different class of lattices. Often results are still useful...       5


 VERY BAD NEWS! internal error in subroutine IBZKPT:
 Reciprocal lattice and k-lattice belong to different class of lattices. Often results are still useful...       5


 VERY BAD NEWS! internal error in subroutine IBZKPT:
 Reciprocal lattice and k-lattice belong to different class of lattices. Often results are still useful...       5


 VERY BAD NEWS! internal error in subroutine IBZKPT:
 Reciprocal lattice and k-lattice belong to different class of lattices. Often results are still useful...       5


 VERY BAD NEWS! internal error in subroutine IBZKPT:
 Reciprocal lattice and k-lattice belong to different class of lattices. Often results are still useful...       5


 VERY BAD NEWS! internal error in subroutine IBZKPT:
 Reciprocal lattice and k-lattice belong to different class of lattices. Often results are still useful...       5


 VERY BAD NEWS! internal error in subroutine IBZKPT:
 Reciprocal lattice and k-lattice belong to different class of lattices. Often results are still useful...       5


 VERY BAD NEWS! internal error in subroutine IBZKPT:
 Reciprocal lattice and k-lattice belong to different class of lattices. Often results are still useful...       5


 VERY BAD NEWS! internal error in subroutine IBZKPT:
 Reciprocal lattice and k-lattice belong to different class of lattices. Often results are still useful...       5


 VERY BAD NEWS! internal error in subroutine IBZKPT:
 Reciprocal lattice and k-lattice belong to different class of lattices. Often results are still useful...       5
 writing wavefunctions
