 vasp.5.4.4.18Apr17-6-g9f103f2a35 (build Jan 14 2022 15:04:31) complex          
  
 executed on             LinuxIFC date 2025.09.24  00:56:31
 running on   10 total cores
 distrk:  each k-point on   10 cores,    1 groups
 distr:  one band on NCORES_PER_BAND=   1 cores,   10 groups


--------------------------------------------------------------------------------------------------------


 INCAR:
 POTCAR:    PAW_PBE C 08Apr2002                   
 POTCAR:    PAW_PBE N 08Apr2002                   
 POTCAR:    PAW_PBE H 15Jun2001                   

 ----------------------------------------------------------------------------- 
|                                                                             |
|           W    W    AA    RRRRR   N    N  II  N    N   GGGG   !!!           |
|           W    W   A  A   R    R  NN   N  II  NN   N  G    G  !!!           |
|           W    W  A    A  R    R  N N  N  II  N N  N  G       !!!           |
|           W WW W  AAAAAA  RRRRR   N  N N  II  N  N N  G  GGG   !            |
|           WW  WW  A    A  R   R   N   NN  II  N   NN  G    G                |
|           W    W  A    A  R    R  N    N  II  N    N   GGGG   !!!           |
|                                                                             |
|      For optimal performance we recommend to set                            |
|        NCORE= 4 - approx SQRT( number of cores)                             |
|      NCORE specifies how many cores store one orbital (NPAR=cpu/NCORE).     |
|      This setting can  greatly improve the performance of VASP for DFT.     |
|      The default,   NCORE=1            might be grossly inefficient         |
|      on modern multi-core architectures or massively parallel machines.     |
|      Do your own testing !!!!                                               |
|      Unfortunately you need to use the default for GW and RPA calculations. |
|      (for HF NCORE is supported but not extensively tested yet)             |
|                                                                             |
 ----------------------------------------------------------------------------- 

 POTCAR:    PAW_PBE C 08Apr2002                   
   SHA256 =  253f7b50bb8d59471dbedb8285d89021f4a42ed1a2c5d38a03a736e69125dd95 C/
   COPYR  = (c) Copyright 08Apr2002 Georg Kresse                                
   COPYR  = This file is part of the software VASP. Any use, copying, and all ot
   COPYR  = If you do not have a valid VASP license, you may not use, copy or di
   VRHFIN =C: s2p2                                                              
   LEXCH  = PE                                                                  
   EATOM  =   147.1560 eV,   10.8157 Ry                                         
                                                                                
   TITEL  = PAW_PBE C 08Apr2002                                                 
   LULTRA =        F    use ultrasoft PP ?                                      
   IUNSCR =        1    unscreen: 0-lin 1-nonlin 2-no                           
   RPACOR =    1.200    partial core radius                                     
   POMASS =   12.011; ZVAL   =    4.000    mass and valenz                      
   RCORE  =    1.500    outmost cutoff radius                                   
   RWIGS  =    1.630; RWIGS  =    0.863    wigner-seitz radius (au A)           
   ENMAX  =  400.000; ENMIN  =  300.000 eV                                      
   ICORE  =        2    local potential                                         
   LCOR   =        T    correct aug charges                                     
   LPAW   =        T    paw PP                                                  
   EAUG   =  644.873                                                            
   DEXC   =    0.000                                                            
   RMAX   =    1.529    core radius for proj-oper                               
   RAUG   =    1.300    factor for augmentation sphere                          
   RDEP   =    1.501    radius for radial grids                                 
   RDEPT  =    1.300    core radius for aug-charge                              
                                                                                
   Atomic configuration                                                         
    4 entries                                                                   
     n  l   j            E        occ.                                          
     1  0  0.50      -273.3789   2.0000                                         
     2  0  0.50       -13.7508   2.0000                                         
     2  1  0.50        -5.2854   2.0000                                         
     3  2  1.50        -5.4423   0.0000                                         
   Description                                                                  
     l       E           TYP  RCUT    TYP  RCUT                                 
     0    -13.7508458     23  1.200                                             
     0     -8.2022199     23  1.200                                             
     1     -5.2854383     23  1.500                                             
     1     34.0145650     23  1.500                                             
     2     -5.4423304      7  1.500                                             
  local pseudopotential read in
  partial core-charges read in
  partial kinetic energy density read in
  atomic valenz-charges read in
  non local Contribution for L=           0  read in
    real space projection operators read in
  non local Contribution for L=           0  read in
    real space projection operators read in
  non local Contribution for L=           1  read in
    real space projection operators read in
  non local Contribution for L=           1  read in
    real space projection operators read in
    PAW grid and wavefunctions read in
 
   number of l-projection  operators is LMAX  =           4
   number of lm-projection operators is LMMAX =           8
 
 POTCAR:    PAW_PBE N 08Apr2002                   
   SHA256 =  e053789ff3a61a86a1b75d8a110fcc91f86041011e7b0817c7c99e4e8a6349d7 N/
   COPYR  = (c) Copyright 08Apr2002 Georg Kresse                                
   COPYR  = This file is part of the software VASP. Any use, copying, and all ot
   COPYR  = If you do not have a valid VASP license, you may not use, copy or di
   VRHFIN =N: s2p3                                                              
   LEXCH  = PE                                                                  
   EATOM  =   264.5486 eV,   19.4438 Ry                                         
                                                                                
   TITEL  = PAW_PBE N 08Apr2002                                                 
   LULTRA =        F    use ultrasoft PP ?                                      
   IUNSCR =        1    unscreen: 0-lin 1-nonlin 2-no                           
   RPACOR =    1.200    partial core radius                                     
   POMASS =   14.001; ZVAL   =    5.000    mass and valenz                      
   RCORE  =    1.500    outmost cutoff radius                                   
   RWIGS  =    1.400; RWIGS  =    0.741    wigner-seitz radius (au A)           
   ENMAX  =  400.000; ENMIN  =  300.000 eV                                      
   ICORE  =        2    local potential                                         
   LCOR   =        T    correct aug charges                                     
   LPAW   =        T    paw PP                                                  
   EAUG   =  627.112                                                            
   DEXC   =    0.000                                                            
   RMAX   =    1.529    core radius for proj-oper                               
   RAUG   =    1.300    factor for augmentation sphere                          
   RDEP   =    1.514    radius for radial grids                                 
   RDEPT  =    1.338    core radius for aug-charge                              
                                                                                
   Atomic configuration                                                         
    4 entries                                                                   
     n  l   j            E        occ.                                          
     1  0  0.50      -384.7179   2.0000                                         
     2  0  0.50       -18.5828   2.0000                                         
     2  1  0.50        -7.0898   3.0000                                         
     3  2  1.50        -6.8029   0.0000                                         
   Description                                                                  
     l       E           TYP  RCUT    TYP  RCUT                                 
     0    -18.5828119     23  1.200                                             
     0    -13.5018863     23  1.200                                             
     1     -7.0897853     23  1.500                                             
     1      9.5240782     23  1.500                                             
     2     -6.8029130      7  1.500                                             
  local pseudopotential read in
  partial core-charges read in
  partial kinetic energy density read in
  atomic valenz-charges read in
  non local Contribution for L=           0  read in
    real space projection operators read in
  non local Contribution for L=           0  read in
    real space projection operators read in
  non local Contribution for L=           1  read in
    real space projection operators read in
  non local Contribution for L=           1  read in
    real space projection operators read in
    PAW grid and wavefunctions read in
 
   number of l-projection  operators is LMAX  =           4
   number of lm-projection operators is LMMAX =           8
 
 POTCAR:    PAW_PBE H 15Jun2001                   
   SHA256 =  030f79b5d3ab3cf0e668861823c8fb652ff669f3e15e46930bd03bfd63a607b6 H/
   COPYR  = (c) Copyright 15Jun2001 Georg Kresse                                
   COPYR  = This file is part of the software VASP. Any use, copying, and all ot
   COPYR  = If you do not have a valid VASP license, you may not use, copy or di
   VRHFIN =H: ultrasoft test                                                    
   LEXCH  = PE                                                                  
   EATOM  =    12.4884 eV,    0.9179 Ry                                         
                                                                                
   TITEL  = PAW_PBE H 15Jun2001                                                 
   LULTRA =        F    use ultrasoft PP ?                                      
   IUNSCR =        0    unscreen: 0-lin 1-nonlin 2-no                           
   RPACOR =    0.000    partial core radius                                     
   POMASS =    1.000; ZVAL   =    1.000    mass and valenz                      
   RCORE  =    1.100    outmost cutoff radius                                   
   RWIGS  =    0.700; RWIGS  =    0.370    wigner-seitz radius (au A)           
   ENMAX  =  250.000; ENMIN  =  200.000 eV                                      
   RCLOC  =    0.701    cutoff for local pot                                    
   LCOR   =        T    correct aug charges                                     
   LPAW   =        T    paw PP                                                  
   EAUG   =  400.000                                                            
   RMAX   =    1.123    core radius for proj-oper                               
   RAUG   =    1.200    factor for augmentation sphere                          
   RDEP   =    1.112    radius for radial grids                                 
   RDEPT  =    0.926    core radius for aug-charge                              
                                                                                
   Atomic configuration                                                         
    2 entries                                                                   
     n  l   j            E        occ.                                          
     1  0  0.50        -6.4927   1.0000                                         
     2  1  0.50        -3.4015   0.0000                                         
   Description                                                                  
     l       E           TYP  RCUT    TYP  RCUT                                 
     0     -6.4927494     23  1.100                                             
     0      6.8029130     23  1.100                                             
     1     -4.0817478     23  1.100                                             
  local pseudopotential read in
  atomic valenz-charges read in
  non local Contribution for L=           0  read in
    real space projection operators read in
  non local Contribution for L=           0  read in
    real space projection operators read in
  non local Contribution for L=           1  read in
    real space projection operators read in
    PAW grid and wavefunctions read in
 
   number of l-projection  operators is LMAX  =           3
   number of lm-projection operators is LMMAX =           5
 
  PAW_PBE C 08Apr2002                   :
 energy of atom  1       EATOM= -147.1560
 kinetic energy error for atom=    0.0288 (will be added to EATOM!!)
  PAW_PBE N 08Apr2002                   :
 energy of atom  2       EATOM= -264.5486
 kinetic energy error for atom=    0.0736 (will be added to EATOM!!)
  PAW_PBE H 15Jun2001                   :
 energy of atom  3       EATOM=  -12.4884
 kinetic energy error for atom=    0.0098 (will be added to EATOM!!)
 
 
 POSCAR: 3D\Atomistic                            
  positions in direct lattice
  velocities in cartesian coordinates
 exchange correlation table for  LEXCH =        8
   RHO(1)=    0.500       N(1)  =     2000
   RHO(2)=  100.500       N(2)  =     4000

 VTST: version 3.2, (02/03/18)

 CHAIN: initializing optimizer
 
 OPT: Using VASP Dynamics algorithm
 CHAIN: Read ICHAIN            0
 
 POSCAR: 3D\Atomistic                            
  positions in direct lattice
  velocities in cartesian coordinates
 


--------------------------------------------------------------------------------------------------------


 ion  position               nearest neighbor table
   1  0.523  0.513  0.443-   3 1.10   4 1.10   2 1.27
   2  0.583  0.489  0.552-   5 1.03   1 1.27
   3  0.577  0.497  0.348-   1 1.10
   4  0.419  0.549  0.434-   1 1.10
   5  0.521  0.508  0.633-   2 1.03
 
  LATTYP: Found a simple cubic cell.
 ALAT       =    10.0000000000
  
  Lattice vectors:
  
 A1 = (  10.0000000000,   0.0000000000,   0.0000000000)
 A2 = (   0.0000000000,  10.0000000000,   0.0000000000)
 A3 = (   0.0000000000,   0.0000000000,  10.0000000000)


Analysis of symmetry for initial positions (statically):
=====================================================================
 Subroutine PRICEL returns:
 Original cell was already a primitive cell.
 

 Routine SETGRP: Setting up the symmetry group for a 
 simple cubic supercell.


 Subroutine GETGRP returns: Found  1 space group operations
 (whereof  1 operations were pure point group operations)
 out of a pool of 48 trial point group operations.


The static configuration has the point symmetry C_1 .


Analysis of symmetry for dynamics (positions and initial velocities):
=====================================================================
 Subroutine PRICEL returns:
 Original cell was already a primitive cell.
 

 Routine SETGRP: Setting up the symmetry group for a 
 simple cubic supercell.


 Subroutine GETGRP returns: Found  1 space group operations
 (whereof  1 operations were pure point group operations)
 out of a pool of 48 trial point group operations.


The dynamic configuration has the point symmetry C_1 .


 Subroutine INISYM returns: Found  1 space group operations
 (whereof  1 operations are pure point group operations),
 and found     1 'primitive' translations

 
 
 KPOINTS: K-Spacing Value to Generate K-Mesh: 0.04

Automatic generation of k-mesh.
Space group operators:
 irot       det(A)        alpha          n_x          n_y          n_z        tau_x        tau_y        tau_z
    1     1.000000     0.000000     1.000000     0.000000     0.000000     0.000000     0.000000     0.000000
 
 Subroutine IBZKPT returns following result:
 ===========================================
 
 Found      5 irreducible k-points:
 
 Following reciprocal coordinates:
            Coordinates               Weight
  0.000000  0.000000  0.000000      1.000000
  0.333333  0.000000  0.000000      2.000000
  0.000000  0.000000  0.333333      2.000000
  0.333333  0.000000  0.333333      2.000000
 -0.333333  0.000000  0.333333      2.000000
 
 Following cartesian coordinates:
            Coordinates               Weight
  0.000000  0.000000  0.000000      1.000000
  0.033333  0.000000  0.000000      2.000000
  0.000000  0.000000  0.033333      2.000000
  0.033333  0.000000  0.033333      2.000000
 -0.033333  0.000000  0.033333      2.000000
 
 
 Subroutine IBZKPT_HF returns following result:
 ==============================================
 
 Found      9 k-points in 1st BZ
 the following      9 k-points will be used (e.g. in the exchange kernel)
 Following reciprocal coordinates:   # in IRBZ
  0.000000  0.000000  0.000000    0.11111111   1 t-inv F
  0.333333  0.000000  0.000000    0.11111111   2 t-inv F
  0.000000  0.000000  0.333333    0.11111111   3 t-inv F
  0.333333  0.000000  0.333333    0.11111111   4 t-inv F
 -0.333333  0.000000  0.333333    0.11111111   5 t-inv F
 -0.333333  0.000000  0.000000    0.11111111   2 t-inv T
  0.000000  0.000000 -0.333333    0.11111111   3 t-inv T
 -0.333333  0.000000 -0.333333    0.11111111   4 t-inv T
  0.333333  0.000000 -0.333333    0.11111111   5 t-inv T


--------------------------------------------------------------------------------------------------------




 Dimension of arrays:
   k-points           NKPTS =      5   k-points in BZ     NKDIM =      5   number of bands    NBANDS=     10
   number of dos      NEDOS =    301   number of ions     NIONS =      5
   non local maximal  LDIM  =      4   non local SUM 2l+1 LMDIM =      8
   total plane-waves  NPLWV = 125000
   max r-space proj   IRMAX =      1   max aug-charges    IRDMAX=  12504
   dimension x,y,z NGX =    50 NGY =   50 NGZ =   50
   dimension x,y,z NGXF=   100 NGYF=  100 NGZF=  100
   support grid    NGXF=   200 NGYF=  200 NGZF=  200
   ions per type =               1   1   3
   NGX,Y,Z   is equivalent  to a cutoff of   8.31,  8.31,  8.31 a.u.
   NGXF,Y,Z  is equivalent  to a cutoff of  16.62, 16.62, 16.62 a.u.

 SYSTEM =  unknown system                          
 POSCAR =  3D\Atomistic                            

 Startparameter for this run:
   NWRITE =      2    write-flag & timer
   PREC   = normal    normal or accurate (medium, high low for compatibility)
   ISTART =      0    job   : 0-new  1-cont  2-samecut
   ICHARG =      2    charge: 1-file 2-atom 10-const
   ISPIN  =      1    spin polarized calculation?
   LNONCOLLINEAR =      F non collinear calculations
   LSORBIT =      F    spin-orbit coupling
   INIWAV =      1    electr: 0-lowe 1-rand  2-diag
   LASPH  =      F    aspherical Exc in radial PAW
   METAGGA=      F    non-selfconsistent MetaGGA calc.

 Electronic Relaxation 1
   ENCUT  =  400.0 eV  29.40 Ry    5.42 a.u.  16.31 16.31 16.31*2*pi/ulx,y,z
   ENINI  =  400.0     initial cutoff
   ENAUG  =  644.9 eV  augmentation charge cutoff
   NELM   =     60;   NELMIN=  2; NELMDL=  0     # of ELM steps 
   EDIFF  = 0.1E-05   stopping-criterion for ELM
   LREAL  =      F    real-space projection
   NLSPLINE    = F    spline interpolate recip. space projectors
   LCOMPAT=      F    compatible to vasp.4.4
   GGA_COMPAT  = T    GGA compatible to vasp.4.4-vasp.4.6
   LMAXPAW     = -100 max onsite density
   LMAXMIX     =    2 max onsite mixed and CHGCAR
   VOSKOWN=      0    Vosko Wilk Nusair interpolation
   ROPT   =    0.00000   0.00000   0.00000
 Ionic relaxation
   EDIFFG = 0.1E-04   stopping-criterion for IOM
   NSW    =     97    number of steps for IOM
   NBLOCK =      1;   KBLOCK =     97    inner block; outer block 
   IBRION =      5    ionic relax: 0-MD 1-quasi-New 2-CG
   NFREE  =      2    steps in history (QN), initial steepest desc. (CG)
   ISIF   =      2    stress and relaxation
   IWAVPR =     11    prediction:  0-non 1-charg 2-wave 3-comb
   ISYM   =      2    0-nonsym 1-usesym 2-fastsym
   LCORR  =      T    Harris-Foulkes like correction to forces

   POTIM  = 0.0200    time-step for ionic-motion
   TEIN   =    0.0    initial temperature
   TEBEG  =    0.0;   TEEND  =   0.0 temperature during run
   SMASS  =  -3.00    Nose mass-parameter (am)
   estimated Nose-frequenzy (Omega)   =  0.10E-29 period in steps =****** mass=  -0.229E-26a.u.
   SCALEE = 1.0000    scale energy and forces
   NPACO  =    256;   APACO  = 16.0  distance and # of slots for P.C.
   PSTRESS=    0.0 pullay stress

  Mass of Ions in am
   POMASS =  12.01 14.00  1.00
  Ionic Valenz
   ZVAL   =   4.00  5.00  1.00
  Atomic Wigner-Seitz radii
   RWIGS  =  -1.00 -1.00 -1.00
  virtual crystal weights 
   VCA    =   1.00  1.00  1.00
   NELECT =      12.0000    total number of electrons
   NUPDOWN=      -1.0000    fix difference up-down

 DOS related values:
   EMIN   =  10.00;   EMAX   =-10.00  energy-range for DOS
   EFERMI =   0.00
   ISMEAR =     0;   SIGMA  =   0.05  broadening in eV -4-tet -1-fermi 0-gaus

 Electronic relaxation 2 (details)
   IALGO  =     38    algorithm
   LDIAG  =      T    sub-space diagonalisation (order eigenvalues)
   LSUBROT=      F    optimize rotation matrix (better conditioning)
   TURBO    =      0    0=normal 1=particle mesh
   IRESTART =      0    0=no restart 2=restart with 2 vectors
   NREBOOT  =      0    no. of reboots
   NMIN     =      0    reboot dimension
   EREF     =   0.00    reference energy to select bands
   IMIX   =      4    mixing-type and parameters
     AMIX     =   0.40;   BMIX     =  1.00
     AMIX_MAG =   1.60;   BMIX_MAG =  1.00
     AMIN     =   0.10
     WC   =   100.;   INIMIX=   1;  MIXPRE=   1;  MAXMIX= -45

 Intra band minimization:
   WEIMIN = 0.0010     energy-eigenvalue tresh-hold
   EBREAK =  0.25E-07  absolut break condition
   DEPER  =   0.30     relativ break condition  

   TIME   =   0.40     timestep for ELM

  volume/ion in A,a.u.               =     200.00      1349.67
  Fermi-wavevector in a.u.,A,eV,Ry     =   0.374802  0.708273  1.911299  0.140477
  Thomas-Fermi vector in A             =   1.305434
 
 Write flags
   LWAVE        =      T    write WAVECAR
   LDOWNSAMPLE  =      F    k-point downsampling of WAVECAR
   LCHARG       =      T    write CHGCAR
   LVTOT        =      F    write LOCPOT, total local potential
   LVHAR        =      F    write LOCPOT, Hartree potential only
   LELF         =      F    write electronic localiz. function (ELF)
   LORBIT       =      0    0 simple, 1 ext, 2 COOP (PROOUT), +10 PAW based schemes


 Dipole corrections
   LMONO  =      F    monopole corrections only (constant potential shift)
   LDIPOL =      F    correct potential (dipole corrections)
   IDIPOL =      0    1-x, 2-y, 3-z, 4-all directions 
   EPSILON=  1.0000000 bulk dielectric constant

 Exchange correlation treatment:
   GGA     =    --    GGA type
   LEXCH   =     8    internal setting for exchange type
   VOSKOWN=      0    Vosko Wilk Nusair interpolation
   LHFCALC =     F    Hartree Fock is set to
   LHFONE  =     F    Hartree Fock one center treatment
   AEXX    =    0.0000 exact exchange contribution

 Linear response parameters
   LEPSILON=     F    determine dielectric tensor
   LRPA    =     F    only Hartree local field effects (RPA)
   LNABLA  =     F    use nabla operator in PAW spheres
   LVEL    =     F    velocity operator in full k-point grid
   LINTERFAST=   F  fast interpolation
   KINTER  =     0    interpolate to denser k-point grid
   CSHIFT  =0.1000    complex shift for real part using Kramers Kronig
   OMEGAMAX=  -1.0    maximum frequency
   DEG_THRESHOLD= 0.2000000E-02 threshold for treating states as degnerate
   RTIME   =   -0.100 relaxation time in fs
  (WPLASMAI=    0.000 imaginary part of plasma frequency in eV, 0.658/RTIME)
   DFIELD  = 0.0000000 0.0000000 0.0000000 field for delta impulse in time
 
 Orbital magnetization related:
   ORBITALMAG=     F  switch on orbital magnetization
   LCHIMAG   =     F  perturbation theory with respect to B field
   DQ        =  0.001000  dq finite difference perturbation B field
   LLRAUG    =     F  two centre corrections for induced B field



--------------------------------------------------------------------------------------------------------


 finite differences
 charge density and potential will be updated during run
 non-spin polarized calculation
 Variant of blocked Davidson
 Davidson routine will perform the subspace rotation
 perform sub-space diagonalisation
    after iterative eigenvector-optimisation
 modified Broyden-mixing scheme, WC =      100.0
 initial mixing is a Kerker type mixing with AMIX =  0.4000 and BMIX =      1.0000
 Hartree-type preconditioning will be used
 using additional bands            4
 reciprocal scheme for non local part
 use partial core corrections
 calculate Harris-corrections to forces 
   (improved forces if not selfconsistent)
 use gradient corrections 
 use of overlap-Matrix (Vanderbilt PP)
 Gauss-broadening in eV      SIGMA  =   0.05


--------------------------------------------------------------------------------------------------------


  energy-cutoff  :      400.00
  volume of cell :     1000.00
      direct lattice vectors                 reciprocal lattice vectors
    10.000000000  0.000000000  0.000000000     0.100000000  0.000000000  0.000000000
     0.000000000 10.000000000  0.000000000     0.000000000  0.100000000  0.000000000
     0.000000000  0.000000000 10.000000000     0.000000000  0.000000000  0.100000000

  length of vectors
    10.000000000 10.000000000 10.000000000     0.100000000  0.100000000  0.100000000


 
 k-points in units of 2pi/SCALE and weight: K-Spacing Value to Generate K-Mesh: 0.04
   0.00000000  0.00000000  0.00000000       0.111
   0.03333333  0.00000000  0.00000000       0.222
   0.00000000  0.00000000  0.03333333       0.222
   0.03333333  0.00000000  0.03333333       0.222
  -0.03333333  0.00000000  0.03333333       0.222
 
 k-points in reciprocal lattice and weights: K-Spacing Value to Generate K-Mesh: 0.04
   0.00000000  0.00000000  0.00000000       0.111
   0.33333333  0.00000000  0.00000000       0.222
   0.00000000  0.00000000  0.33333333       0.222
   0.33333333  0.00000000  0.33333333       0.222
  -0.33333333  0.00000000  0.33333333       0.222
 
 position of ions in fractional coordinates (direct lattice) 
   0.52303582  0.51309511  0.44254188
   0.58328447  0.48941532  0.55237784
   0.57731716  0.49722123  0.34820156
   0.41893033  0.54892427  0.43369942
   0.52144222  0.50824407  0.63287930
 
 position of ions in cartesian coordinates  (Angst):
   5.23035817  5.13095109  4.42541881
   5.83284471  4.89415317  5.52377838
   5.77317156  4.97221233  3.48201560
   4.18930332  5.48924271  4.33699421
   5.21442223  5.08244070  6.32879300
 


--------------------------------------------------------------------------------------------------------


 k-point  1 :   0.0000 0.0000 0.0000  plane waves:   18037
 k-point  2 :   0.3333 0.0000 0.0000  plane waves:   18184
 k-point  3 :   0.0000 0.0000 0.3333  plane waves:   18184
 k-point  4 :   0.3333 0.0000 0.3333  plane waves:   18211
 k-point  5 :  -0.3333 0.0000 0.3333  plane waves:   18211

 maximum and minimum number of plane-waves per node :     18211    18037

 maximum number of plane-waves:     18211
 maximum index in each direction: 
   IXMAX=   16   IYMAX=   16   IZMAX=   16
   IXMIN=  -16   IYMIN=  -16   IZMIN=  -16


 serial   3D FFT for wavefunctions
 parallel 3D FFT for charge:
    minimum data exchange during FFTs selected (reduces bandwidth)


 total amount of memory used by VASP MPI-rank0    77195. kBytes
=======================================================================

   base      :      30000. kBytes
   nonl-proj :      18948. kBytes
   fftplans  :      15236. kBytes
   grid      :      11536. kBytes
   one-center:         15. kBytes
   wavefun   :       1460. kBytes
 
     INWAV:  cpu time    0.0001: real time    0.0002
 Broyden mixing: mesh for mixing (old mesh)
   NGX = 33   NGY = 33   NGZ = 33
  (NGX  =100   NGY  =100   NGZ  =100)
  gives a total of  35937 points

 initial charge density was supplied:
 charge density of overlapping atoms calculated
 number of electron      12.0000000 magnetization 
 keeping initial charge density in first step


--------------------------------------------------------------------------------------------------------


 Maximum index for augmentation-charges         1158 (set IRDMAX)


--------------------------------------------------------------------------------------------------------


 First call to EWALD:  gamma=   0.177
 Maximum number of real-space cells 3x 3x 3
 Maximum number of reciprocal cells 3x 3x 3

    FEWALD:  cpu time    0.0011: real time    0.0011


--------------------------------------- Iteration      1(   1)  ---------------------------------------


    POTLOK:  cpu time    0.0407: real time    0.0432
    SETDIJ:  cpu time    0.0259: real time    0.0259
     EDDAV:  cpu time    0.1525: real time    0.1533
       DOS:  cpu time    0.0003: real time    0.0003
    --------------------------------------------
      LOOP:  cpu time    0.2194: real time    0.2228

 eigenvalue-minimisations  :   150
 total energy-change (2. order) : 0.5472911E+02  (-0.3013507E+03)
 number of electron      12.0000000 magnetization 
 augmentation part       12.0000000 magnetization 

 Free energy of the ion-electron system (eV)
  ---------------------------------------------------
  alpha Z        PSCENC =         0.59273253
  Ewald energy   TEWEN  =       228.26622565
  -Hartree energ DENC   =      -545.95136293
  -exchange      EXHF   =         0.00000000
  -V(xc)+E(xc)   XCENC  =        38.93357311
  PAW double counting   =       319.85686030     -321.64388355
  entropy T*S    EENTRO =        -0.00708736
  eigenvalues    EBANDS =      -114.35607446
  atomic energy  EATOM  =       449.03812428
  Solvation  Ediel_sol  =         0.00000000
  ---------------------------------------------------
  free energy    TOTEN  =        54.72910757 eV

  energy without entropy =       54.73619493  energy(sigma->0) =       54.73265125


--------------------------------------------------------------------------------------------------------




--------------------------------------- Iteration      1(   2)  ---------------------------------------


     EDDAV:  cpu time    0.1763: real time    0.1768
       DOS:  cpu time    0.0001: real time    0.0001
    --------------------------------------------
      LOOP:  cpu time    0.1764: real time    0.1769

 eigenvalue-minimisations  :   180
 total energy-change (2. order) :-0.7489053E+02  (-0.7445561E+02)
 number of electron      12.0000000 magnetization 
 augmentation part       12.0000000 magnetization 

 Free energy of the ion-electron system (eV)
  ---------------------------------------------------
  alpha Z        PSCENC =         0.59273253
  Ewald energy   TEWEN  =       228.26622565
  -Hartree energ DENC   =      -545.95136293
  -exchange      EXHF   =         0.00000000
  -V(xc)+E(xc)   XCENC  =        38.93357311
  PAW double counting   =       319.85686030     -321.64388355
  entropy T*S    EENTRO =        -0.00000000
  eigenvalues    EBANDS =      -189.25369515
  atomic energy  EATOM  =       449.03812428
  Solvation  Ediel_sol  =         0.00000000
  ---------------------------------------------------
  free energy    TOTEN  =       -20.16142576 eV

  energy without entropy =      -20.16142576  energy(sigma->0) =      -20.16142576


--------------------------------------------------------------------------------------------------------




--------------------------------------- Iteration      1(   3)  ---------------------------------------


     EDDAV:  cpu time    0.1444: real time    0.1472
       DOS:  cpu time    0.0001: real time    0.0001
    --------------------------------------------
      LOOP:  cpu time    0.1445: real time    0.1473

 eigenvalue-minimisations  :   140
 total energy-change (2. order) :-0.1005302E+02  (-0.1005302E+02)
 number of electron      12.0000000 magnetization 
 augmentation part       12.0000000 magnetization 

 Free energy of the ion-electron system (eV)
  ---------------------------------------------------
  alpha Z        PSCENC =         0.59273253
  Ewald energy   TEWEN  =       228.26622565
  -Hartree energ DENC   =      -545.95136293
  -exchange      EXHF   =         0.00000000
  -V(xc)+E(xc)   XCENC  =        38.93357311
  PAW double counting   =       319.85686030     -321.64388355
  entropy T*S    EENTRO =        -0.00000000
  eigenvalues    EBANDS =      -199.30671367
  atomic energy  EATOM  =       449.03812428
  Solvation  Ediel_sol  =         0.00000000
  ---------------------------------------------------
  free energy    TOTEN  =       -30.21444427 eV

  energy without entropy =      -30.21444427  energy(sigma->0) =      -30.21444427


--------------------------------------------------------------------------------------------------------




--------------------------------------- Iteration      1(   4)  ---------------------------------------


     EDDAV:  cpu time    0.1157: real time    0.1199
       DOS:  cpu time    0.0001: real time    0.0001
    --------------------------------------------
      LOOP:  cpu time    0.1158: real time    0.1200

 eigenvalue-minimisations  :   110
 total energy-change (2. order) :-0.1948577E+00  (-0.1948577E+00)
 number of electron      12.0000000 magnetization 
 augmentation part       12.0000000 magnetization 

 Free energy of the ion-electron system (eV)
  ---------------------------------------------------
  alpha Z        PSCENC =         0.59273253
  Ewald energy   TEWEN  =       228.26622565
  -Hartree energ DENC   =      -545.95136293
  -exchange      EXHF   =         0.00000000
  -V(xc)+E(xc)   XCENC  =        38.93357311
  PAW double counting   =       319.85686030     -321.64388355
  entropy T*S    EENTRO =        -0.00000000
  eigenvalues    EBANDS =      -199.50157136
  atomic energy  EATOM  =       449.03812428
  Solvation  Ediel_sol  =         0.00000000
  ---------------------------------------------------
  free energy    TOTEN  =       -30.40930197 eV

  energy without entropy =      -30.40930197  energy(sigma->0) =      -30.40930197


--------------------------------------------------------------------------------------------------------




--------------------------------------- Iteration      1(   5)  ---------------------------------------


     EDDAV:  cpu time    0.1506: real time    0.1510
       DOS:  cpu time    0.0001: real time    0.0001
    CHARGE:  cpu time    0.0394: real time    0.0401
    MIXING:  cpu time    0.0024: real time    0.0024
    --------------------------------------------
      LOOP:  cpu time    0.1926: real time    0.1936

 eigenvalue-minimisations  :   150
 total energy-change (2. order) :-0.2070305E-02  (-0.2070305E-02)
 number of electron      11.9999999 magnetization 
 augmentation part        0.4426585 magnetization 

 Broyden mixing:
  rms(total) = 0.95881E+00    rms(broyden)= 0.95801E+00
  rms(prec ) = 0.12637E+01
  weight for this iteration     100.00

 Free energy of the ion-electron system (eV)
  ---------------------------------------------------
  alpha Z        PSCENC =         0.59273253
  Ewald energy   TEWEN  =       228.26622565
  -Hartree energ DENC   =      -545.95136293
  -exchange      EXHF   =         0.00000000
  -V(xc)+E(xc)   XCENC  =        38.93357311
  PAW double counting   =       319.85686030     -321.64388355
  entropy T*S    EENTRO =        -0.00000000
  eigenvalues    EBANDS =      -199.50364167
  atomic energy  EATOM  =       449.03812428
  Solvation  Ediel_sol  =         0.00000000
  ---------------------------------------------------
  free energy    TOTEN  =       -30.41137227 eV

  energy without entropy =      -30.41137227  energy(sigma->0) =      -30.41137227


--------------------------------------------------------------------------------------------------------




--------------------------------------- Iteration      1(   6)  ---------------------------------------


    POTLOK:  cpu time    0.0364: real time    0.0377
    SETDIJ:  cpu time    0.0253: real time    0.0253
     EDDAV:  cpu time    0.1263: real time    0.1264
       DOS:  cpu time    0.0001: real time    0.0001
    CHARGE:  cpu time    0.0335: real time    0.0335
    MIXING:  cpu time    0.0021: real time    0.0021
    --------------------------------------------
      LOOP:  cpu time    0.2237: real time    0.2250

 eigenvalue-minimisations  :   120
 total energy-change (2. order) : 0.2432438E+01  (-0.7468279E+00)
 number of electron      11.9999999 magnetization 
 augmentation part        0.3744697 magnetization 

 Broyden mixing:
  rms(total) = 0.51028E+00    rms(broyden)= 0.51009E+00
  rms(prec ) = 0.62145E+00
  weight for this iteration     100.00

 eigenvalues of (default mixing * dielectric matrix)
  average eigenvalue GAMMA=   1.2637
  1.2637

 Free energy of the ion-electron system (eV)
  ---------------------------------------------------
  alpha Z        PSCENC =         0.59273253
  Ewald energy   TEWEN  =       228.26622565
  -Hartree energ DENC   =      -572.32215056
  -exchange      EXHF   =         0.00000000
  -V(xc)+E(xc)   XCENC  =        40.39556755
  PAW double counting   =       527.53674621     -529.58630130
  entropy T*S    EENTRO =        -0.00000000
  eigenvalues    EBANDS =      -171.89987913
  atomic energy  EATOM  =       449.03812428
  Solvation  Ediel_sol  =         0.00000000
  ---------------------------------------------------
  free energy    TOTEN  =       -27.97893477 eV

  energy without entropy =      -27.97893477  energy(sigma->0) =      -27.97893477


--------------------------------------------------------------------------------------------------------




--------------------------------------- Iteration      1(   7)  ---------------------------------------


    POTLOK:  cpu time    0.0343: real time    0.0345
    SETDIJ:  cpu time    0.0242: real time    0.0242
     EDDAV:  cpu time    0.1476: real time    0.1476
       DOS:  cpu time    0.0001: real time    0.0001
    CHARGE:  cpu time    0.0328: real time    0.0328
    MIXING:  cpu time    0.0019: real time    0.0019
    --------------------------------------------
      LOOP:  cpu time    0.2409: real time    0.2411

 eigenvalue-minimisations  :   150
 total energy-change (2. order) : 0.4567848E+00  (-0.1297653E+00)
 number of electron      11.9999999 magnetization 
 augmentation part        0.3702094 magnetization 

 Broyden mixing:
  rms(total) = 0.25985E+00    rms(broyden)= 0.25980E+00
  rms(prec ) = 0.31125E+00
  weight for this iteration     100.00

 eigenvalues of (default mixing * dielectric matrix)
  average eigenvalue GAMMA=   1.4705
  0.9631  1.9779

 Free energy of the ion-electron system (eV)
  ---------------------------------------------------
  alpha Z        PSCENC =         0.59273253
  Ewald energy   TEWEN  =       228.26622565
  -Hartree energ DENC   =      -584.26417752
  -exchange      EXHF   =         0.00000000
  -V(xc)+E(xc)   XCENC  =        41.12392290
  PAW double counting   =       726.20768365     -728.34404817
  entropy T*S    EENTRO =        -0.00000000
  eigenvalues    EBANDS =      -160.14261330
  atomic energy  EATOM  =       449.03812428
  Solvation  Ediel_sol  =         0.00000000
  ---------------------------------------------------
  free energy    TOTEN  =       -27.52214998 eV

  energy without entropy =      -27.52214998  energy(sigma->0) =      -27.52214998


--------------------------------------------------------------------------------------------------------




--------------------------------------- Iteration      1(   8)  ---------------------------------------


    POTLOK:  cpu time    0.0346: real time    0.0348
    SETDIJ:  cpu time    0.0252: real time    0.0252
     EDDAV:  cpu time    0.1629: real time    0.1629
       DOS:  cpu time    0.0001: real time    0.0001
    CHARGE:  cpu time    0.0333: real time    0.0333
    MIXING:  cpu time    0.0018: real time    0.0018
    --------------------------------------------
      LOOP:  cpu time    0.2579: real time    0.2581

 eigenvalue-minimisations  :   170
 total energy-change (2. order) : 0.1198426E+00  (-0.2214371E-01)
 number of electron      11.9999999 magnetization 
 augmentation part        0.3602036 magnetization 

 Broyden mixing:
  rms(total) = 0.95640E-01    rms(broyden)= 0.95617E-01
  rms(prec ) = 0.12239E+00
  weight for this iteration     100.00

 eigenvalues of (default mixing * dielectric matrix)
  average eigenvalue GAMMA=   1.4949
  2.2683  1.4227  0.7938

 Free energy of the ion-electron system (eV)
  ---------------------------------------------------
  alpha Z        PSCENC =         0.59273253
  Ewald energy   TEWEN  =       228.26622565
  -Hartree energ DENC   =      -591.24467020
  -exchange      EXHF   =         0.00000000
  -V(xc)+E(xc)   XCENC  =        41.59925453
  PAW double counting   =       877.24255780     -879.41288270
  entropy T*S    EENTRO =        -0.00000000
  eigenvalues    EBANDS =      -153.48364930
  atomic energy  EATOM  =       449.03812428
  Solvation  Ediel_sol  =         0.00000000
  ---------------------------------------------------
  free energy    TOTEN  =       -27.40230741 eV

  energy without entropy =      -27.40230741  energy(sigma->0) =      -27.40230741


--------------------------------------------------------------------------------------------------------




--------------------------------------- Iteration      1(   9)  ---------------------------------------


    POTLOK:  cpu time    0.0390: real time    0.0392
    SETDIJ:  cpu time    0.0249: real time    0.0249
     EDDAV:  cpu time    0.1594: real time    0.1594
       DOS:  cpu time    0.0001: real time    0.0001
    CHARGE:  cpu time    0.0350: real time    0.0350
    MIXING:  cpu time    0.0019: real time    0.0019
    --------------------------------------------
      LOOP:  cpu time    0.2603: real time    0.2605

 eigenvalue-minimisations  :   160
 total energy-change (2. order) : 0.2120646E-01  (-0.2511841E-02)
 number of electron      11.9999999 magnetization 
 augmentation part        0.3611710 magnetization 

 Broyden mixing:
  rms(total) = 0.20706E-01    rms(broyden)= 0.20695E-01
  rms(prec ) = 0.46953E-01
  weight for this iteration     100.00

 eigenvalues of (default mixing * dielectric matrix)
  average eigenvalue GAMMA=   1.4187
  2.2653  1.5474  0.8678  0.9945

 Free energy of the ion-electron system (eV)
  ---------------------------------------------------
  alpha Z        PSCENC =         0.59273253
  Ewald energy   TEWEN  =       228.26622565
  -Hartree energ DENC   =      -593.38788619
  -exchange      EXHF   =         0.00000000
  -V(xc)+E(xc)   XCENC  =        41.74779598
  PAW double counting   =       942.62420634     -944.78452637
  entropy T*S    EENTRO =        -0.00000000
  eigenvalues    EBANDS =      -151.47777317
  atomic energy  EATOM  =       449.03812428
  Solvation  Ediel_sol  =         0.00000000
  ---------------------------------------------------
  free energy    TOTEN  =       -27.38110095 eV

  energy without entropy =      -27.38110095  energy(sigma->0) =      -27.38110095


--------------------------------------------------------------------------------------------------------




--------------------------------------- Iteration      1(  10)  ---------------------------------------


    POTLOK:  cpu time    0.0395: real time    0.0398
    SETDIJ:  cpu time    0.0276: real time    0.0276
     EDDAV:  cpu time    0.1571: real time    0.1571
       DOS:  cpu time    0.0001: real time    0.0001
    CHARGE:  cpu time    0.0343: real time    0.0343
    MIXING:  cpu time    0.0019: real time    0.0019
    --------------------------------------------
      LOOP:  cpu time    0.2605: real time    0.2608

 eigenvalue-minimisations  :   150
 total energy-change (2. order) : 0.4628935E-03  (-0.4213895E-03)
 number of electron      11.9999999 magnetization 
 augmentation part        0.3614545 magnetization 

 Broyden mixing:
  rms(total) = 0.11644E-01    rms(broyden)= 0.11641E-01
  rms(prec ) = 0.31569E-01
  weight for this iteration     100.00

 eigenvalues of (default mixing * dielectric matrix)
  average eigenvalue GAMMA=   1.5926
  2.4463  2.4463  1.3184  0.8760  0.8760

 Free energy of the ion-electron system (eV)
  ---------------------------------------------------
  alpha Z        PSCENC =         0.59273253
  Ewald energy   TEWEN  =       228.26622565
  -Hartree energ DENC   =      -594.49068949
  -exchange      EXHF   =         0.00000000
  -V(xc)+E(xc)   XCENC  =        41.78231116
  PAW double counting   =       944.32095905     -946.47827692
  entropy T*S    EENTRO =        -0.00000000
  eigenvalues    EBANDS =      -150.41202432
  atomic energy  EATOM  =       449.03812428
  Solvation  Ediel_sol  =         0.00000000
  ---------------------------------------------------
  free energy    TOTEN  =       -27.38063806 eV

  energy without entropy =      -27.38063806  energy(sigma->0) =      -27.38063806


--------------------------------------------------------------------------------------------------------




--------------------------------------- Iteration      1(  11)  ---------------------------------------


    POTLOK:  cpu time    0.0339: real time    0.0341
    SETDIJ:  cpu time    0.0253: real time    0.0253
     EDDAV:  cpu time    0.1412: real time    0.1413
       DOS:  cpu time    0.0001: real time    0.0001
    CHARGE:  cpu time    0.0342: real time    0.0342
    MIXING:  cpu time    0.0021: real time    0.0021
    --------------------------------------------
      LOOP:  cpu time    0.2368: real time    0.2370

 eigenvalue-minimisations  :   140
 total energy-change (2. order) :-0.3842029E-02  (-0.4458091E-03)
 number of electron      11.9999999 magnetization 
 augmentation part        0.3607879 magnetization 

 Broyden mixing:
  rms(total) = 0.68935E-02    rms(broyden)= 0.68915E-02
  rms(prec ) = 0.15814E-01
  weight for this iteration     100.00

 eigenvalues of (default mixing * dielectric matrix)
  average eigenvalue GAMMA=   1.6815
  3.0807  2.4351  0.8484  0.9945  1.3653  1.3653

 Free energy of the ion-electron system (eV)
  ---------------------------------------------------
  alpha Z        PSCENC =         0.59273253
  Ewald energy   TEWEN  =       228.26622565
  -Hartree energ DENC   =      -595.92527297
  -exchange      EXHF   =         0.00000000
  -V(xc)+E(xc)   XCENC  =        41.81849951
  PAW double counting   =       938.25984091     -940.41307314
  entropy T*S    EENTRO =        -0.00000000
  eigenvalues    EBANDS =      -149.02155685
  atomic energy  EATOM  =       449.03812428
  Solvation  Ediel_sol  =         0.00000000
  ---------------------------------------------------
  free energy    TOTEN  =       -27.38448008 eV

  energy without entropy =      -27.38448008  energy(sigma->0) =      -27.38448008


--------------------------------------------------------------------------------------------------------




--------------------------------------- Iteration      1(  12)  ---------------------------------------


    POTLOK:  cpu time    0.0338: real time    0.0340
    SETDIJ:  cpu time    0.0241: real time    0.0240
     EDDAV:  cpu time    0.1229: real time    0.1229
       DOS:  cpu time    0.0001: real time    0.0001
    CHARGE:  cpu time    0.0348: real time    0.0348
    MIXING:  cpu time    0.0024: real time    0.0024
    --------------------------------------------
      LOOP:  cpu time    0.2180: real time    0.2182

 eigenvalue-minimisations  :   120
 total energy-change (2. order) :-0.5271718E-02  (-0.1286158E-03)
 number of electron      11.9999999 magnetization 
 augmentation part        0.3605369 magnetization 

 Broyden mixing:
  rms(total) = 0.35761E-02    rms(broyden)= 0.35748E-02
  rms(prec ) = 0.94863E-02
  weight for this iteration     100.00

 eigenvalues of (default mixing * dielectric matrix)
  average eigenvalue GAMMA=   1.9426
  4.4625  2.6427  2.2605  1.3606  0.8460  1.0129  1.0129

 Free energy of the ion-electron system (eV)
  ---------------------------------------------------
  alpha Z        PSCENC =         0.59273253
  Ewald energy   TEWEN  =       228.26622565
  -Hartree energ DENC   =      -596.35825471
  -exchange      EXHF   =         0.00000000
  -V(xc)+E(xc)   XCENC  =        41.82648821
  PAW double counting   =       936.81965931     -938.97223337
  entropy T*S    EENTRO =        -0.00000000
  eigenvalues    EBANDS =      -148.60249371
  atomic energy  EATOM  =       449.03812428
  Solvation  Ediel_sol  =         0.00000000
  ---------------------------------------------------
  free energy    TOTEN  =       -27.38975180 eV

  energy without entropy =      -27.38975180  energy(sigma->0) =      -27.38975180


--------------------------------------------------------------------------------------------------------




--------------------------------------- Iteration      1(  13)  ---------------------------------------


    POTLOK:  cpu time    0.0322: real time    0.0323
    SETDIJ:  cpu time    0.0252: real time    0.0252
     EDDAV:  cpu time    0.1152: real time    0.1152
       DOS:  cpu time    0.0001: real time    0.0001
    CHARGE:  cpu time    0.0329: real time    0.0329
    MIXING:  cpu time    0.0023: real time    0.0023
    --------------------------------------------
      LOOP:  cpu time    0.2080: real time    0.2081

 eigenvalue-minimisations  :   110
 total energy-change (2. order) :-0.5268962E-02  (-0.1054933E-03)
 number of electron      11.9999999 magnetization 
 augmentation part        0.3605753 magnetization 

 Broyden mixing:
  rms(total) = 0.26817E-02    rms(broyden)= 0.26813E-02
  rms(prec ) = 0.50214E-02
  weight for this iteration     100.00

 eigenvalues of (default mixing * dielectric matrix)
  average eigenvalue GAMMA=   1.9580
  4.8948  2.5699  2.3802  1.6033  1.4209  0.8477  0.9648  0.9827

 Free energy of the ion-electron system (eV)
  ---------------------------------------------------
  alpha Z        PSCENC =         0.59273253
  Ewald energy   TEWEN  =       228.26622565
  -Hartree energ DENC   =      -596.52511219
  -exchange      EXHF   =         0.00000000
  -V(xc)+E(xc)   XCENC  =        41.82104415
  PAW double counting   =       934.29402634     -936.44661373
  entropy T*S    EENTRO =        -0.00000000
  eigenvalues    EBANDS =      -148.43544780
  atomic energy  EATOM  =       449.03812428
  Solvation  Ediel_sol  =         0.00000000
  ---------------------------------------------------
  free energy    TOTEN  =       -27.39502076 eV

  energy without entropy =      -27.39502076  energy(sigma->0) =      -27.39502076


--------------------------------------------------------------------------------------------------------




--------------------------------------- Iteration      1(  14)  ---------------------------------------


    POTLOK:  cpu time    0.0330: real time    0.0331
    SETDIJ:  cpu time    0.0253: real time    0.0253
     EDDAV:  cpu time    0.1619: real time    0.1622
       DOS:  cpu time    0.0001: real time    0.0001
    CHARGE:  cpu time    0.0364: real time    0.0364
    MIXING:  cpu time    0.0026: real time    0.0026
    --------------------------------------------
      LOOP:  cpu time    0.2593: real time    0.2596

 eigenvalue-minimisations  :   160
 total energy-change (2. order) :-0.2384022E-02  (-0.3784458E-04)
 number of electron      11.9999999 magnetization 
 augmentation part        0.3603948 magnetization 

 Broyden mixing:
  rms(total) = 0.12677E-02    rms(broyden)= 0.12668E-02
  rms(prec ) = 0.27354E-02
  weight for this iteration     100.00

 eigenvalues of (default mixing * dielectric matrix)
  average eigenvalue GAMMA=   2.1640
  6.3174  3.2844  2.2931  2.2931  1.2698  1.2698  0.8422  0.9533  0.9533

 Free energy of the ion-electron system (eV)
  ---------------------------------------------------
  alpha Z        PSCENC =         0.59273253
  Ewald energy   TEWEN  =       228.26622565
  -Hartree energ DENC   =      -596.57830952
  -exchange      EXHF   =         0.00000000
  -V(xc)+E(xc)   XCENC  =        41.81915696
  PAW double counting   =       935.77899223     -937.93236580
  entropy T*S    EENTRO =        -0.00000000
  eigenvalues    EBANDS =      -148.38196111
  atomic energy  EATOM  =       449.03812428
  Solvation  Ediel_sol  =         0.00000000
  ---------------------------------------------------
  free energy    TOTEN  =       -27.39740479 eV

  energy without entropy =      -27.39740479  energy(sigma->0) =      -27.39740479


--------------------------------------------------------------------------------------------------------




--------------------------------------- Iteration      1(  15)  ---------------------------------------


    POTLOK:  cpu time    0.0323: real time    0.0323
    SETDIJ:  cpu time    0.0241: real time    0.0241
     EDDAV:  cpu time    0.1537: real time    0.1537
       DOS:  cpu time    0.0001: real time    0.0001
    CHARGE:  cpu time    0.0327: real time    0.0327
    MIXING:  cpu time    0.0025: real time    0.0025
    --------------------------------------------
      LOOP:  cpu time    0.2453: real time    0.2454

 eigenvalue-minimisations  :   160
 total energy-change (2. order) :-0.1037567E-02  (-0.1324591E-04)
 number of electron      11.9999999 magnetization 
 augmentation part        0.3605222 magnetization 

 Broyden mixing:
  rms(total) = 0.75853E-03    rms(broyden)= 0.75803E-03
  rms(prec ) = 0.13851E-02
  weight for this iteration     100.00

 eigenvalues of (default mixing * dielectric matrix)
  average eigenvalue GAMMA=   2.1931
  6.6441  3.6936  2.5271  2.1110  1.7487  1.2452  1.2452  0.8410  0.9374  0.9374

 Free energy of the ion-electron system (eV)
  ---------------------------------------------------
  alpha Z        PSCENC =         0.59273253
  Ewald energy   TEWEN  =       228.26622565
  -Hartree energ DENC   =      -596.50092715
  -exchange      EXHF   =         0.00000000
  -V(xc)+E(xc)   XCENC  =        41.81322533
  PAW double counting   =       935.88577569     -938.03867859
  entropy T*S    EENTRO =        -0.00000000
  eigenvalues    EBANDS =      -148.45492009
  atomic energy  EATOM  =       449.03812428
  Solvation  Ediel_sol  =         0.00000000
  ---------------------------------------------------
  free energy    TOTEN  =       -27.39844235 eV

  energy without entropy =      -27.39844235  energy(sigma->0) =      -27.39844235


--------------------------------------------------------------------------------------------------------




--------------------------------------- Iteration      1(  16)  ---------------------------------------


    POTLOK:  cpu time    0.0327: real time    0.0329
    SETDIJ:  cpu time    0.0243: real time    0.0243
     EDDAV:  cpu time    0.1642: real time    0.1655
       DOS:  cpu time    0.0001: real time    0.0001
    CHARGE:  cpu time    0.0353: real time    0.0353
    MIXING:  cpu time    0.0024: real time    0.0024
    --------------------------------------------
      LOOP:  cpu time    0.2589: real time    0.2604

 eigenvalue-minimisations  :   170
 total energy-change (2. order) :-0.3519448E-03  (-0.2416205E-05)
 number of electron      11.9999999 magnetization 
 augmentation part        0.3604786 magnetization 

 Broyden mixing:
  rms(total) = 0.46591E-03    rms(broyden)= 0.46551E-03
  rms(prec ) = 0.74968E-03
  weight for this iteration     100.00

 eigenvalues of (default mixing * dielectric matrix)
  average eigenvalue GAMMA=   2.3237
  7.6766  4.3574  2.6691  2.5120  2.0505  1.2689  1.2164  1.1024  0.8399  0.9338
  0.9338

 Free energy of the ion-electron system (eV)
  ---------------------------------------------------
  alpha Z        PSCENC =         0.59273253
  Ewald energy   TEWEN  =       228.26622565
  -Hartree energ DENC   =      -596.52527381
  -exchange      EXHF   =         0.00000000
  -V(xc)+E(xc)   XCENC  =        41.81454027
  PAW double counting   =       936.13701440     -938.29003622
  entropy T*S    EENTRO =        -0.00000000
  eigenvalues    EBANDS =      -148.43212139
  atomic energy  EATOM  =       449.03812428
  Solvation  Ediel_sol  =         0.00000000
  ---------------------------------------------------
  free energy    TOTEN  =       -27.39879430 eV

  energy without entropy =      -27.39879430  energy(sigma->0) =      -27.39879430


--------------------------------------------------------------------------------------------------------




--------------------------------------- Iteration      1(  17)  ---------------------------------------


    POTLOK:  cpu time    0.0326: real time    0.0327
    SETDIJ:  cpu time    0.0245: real time    0.0245
     EDDAV:  cpu time    0.1519: real time    0.1519
       DOS:  cpu time    0.0001: real time    0.0001
    CHARGE:  cpu time    0.0345: real time    0.0345
    MIXING:  cpu time    0.0027: real time    0.0027
    --------------------------------------------
      LOOP:  cpu time    0.2463: real time    0.2464

 eigenvalue-minimisations  :   160
 total energy-change (2. order) :-0.1617355E-03  (-0.1043303E-05)
 number of electron      11.9999999 magnetization 
 augmentation part        0.3604825 magnetization 

 Broyden mixing:
  rms(total) = 0.16629E-03    rms(broyden)= 0.16523E-03
  rms(prec ) = 0.28399E-03
  weight for this iteration     100.00

 eigenvalues of (default mixing * dielectric matrix)
  average eigenvalue GAMMA=   2.4149
  8.1358  4.9486  3.0235  2.4045  2.4045  1.8596  1.2439  1.2439  0.8411  0.9502
  0.9502  0.9731

 Free energy of the ion-electron system (eV)
  ---------------------------------------------------
  alpha Z        PSCENC =         0.59273253
  Ewald energy   TEWEN  =       228.26622565
  -Hartree energ DENC   =      -596.50482673
  -exchange      EXHF   =         0.00000000
  -V(xc)+E(xc)   XCENC  =        41.81340076
  PAW double counting   =       935.78728413     -937.94017969
  entropy T*S    EENTRO =        -0.00000000
  eigenvalues    EBANDS =      -148.45171697
  atomic energy  EATOM  =       449.03812428
  Solvation  Ediel_sol  =         0.00000000
  ---------------------------------------------------
  free energy    TOTEN  =       -27.39895603 eV

  energy without entropy =      -27.39895603  energy(sigma->0) =      -27.39895603


--------------------------------------------------------------------------------------------------------




--------------------------------------- Iteration      1(  18)  ---------------------------------------


    POTLOK:  cpu time    0.0330: real time    0.0331
    SETDIJ:  cpu time    0.0242: real time    0.0242
     EDDAV:  cpu time    0.1633: real time    0.1634
       DOS:  cpu time    0.0001: real time    0.0001
    CHARGE:  cpu time    0.0358: real time    0.0358
    MIXING:  cpu time    0.0048: real time    0.0048
    --------------------------------------------
      LOOP:  cpu time    0.2612: real time    0.2615

 eigenvalue-minimisations  :   150
 total energy-change (2. order) :-0.4529522E-04  (-0.2786547E-06)
 number of electron      11.9999999 magnetization 
 augmentation part        0.3604885 magnetization 

 Broyden mixing:
  rms(total) = 0.11443E-03    rms(broyden)= 0.11294E-03
  rms(prec ) = 0.14855E-03
  weight for this iteration     100.00

 eigenvalues of (default mixing * dielectric matrix)
  average eigenvalue GAMMA=   2.4139
  8.4015  5.1742  3.3657  2.5000  2.3635  2.0564  1.4221  1.1987  1.1987  0.8408
  0.9948  0.9321  0.9321

 Free energy of the ion-electron system (eV)
  ---------------------------------------------------
  alpha Z        PSCENC =         0.59273253
  Ewald energy   TEWEN  =       228.26622565
  -Hartree energ DENC   =      -596.50524210
  -exchange      EXHF   =         0.00000000
  -V(xc)+E(xc)   XCENC  =        41.81352516
  PAW double counting   =       935.78365480     -937.93653054
  entropy T*S    EENTRO =        -0.00000000
  eigenvalues    EBANDS =      -148.45149111
  atomic energy  EATOM  =       449.03812428
  Solvation  Ediel_sol  =         0.00000000
  ---------------------------------------------------
  free energy    TOTEN  =       -27.39900133 eV

  energy without entropy =      -27.39900133  energy(sigma->0) =      -27.39900133


--------------------------------------------------------------------------------------------------------




--------------------------------------- Iteration      1(  19)  ---------------------------------------


    POTLOK:  cpu time    0.0334: real time    0.0335
    SETDIJ:  cpu time    0.0255: real time    0.0255
     EDDAV:  cpu time    0.1654: real time    0.1654
       DOS:  cpu time    0.0001: real time    0.0001
    CHARGE:  cpu time    0.0342: real time    0.0342
    MIXING:  cpu time    0.0025: real time    0.0025
    --------------------------------------------
      LOOP:  cpu time    0.2610: real time    0.2612

 eigenvalue-minimisations  :   170
 total energy-change (2. order) :-0.6968636E-05  (-0.3385404E-07)
 number of electron      11.9999999 magnetization 
 augmentation part        0.3604879 magnetization 

 Broyden mixing:
  rms(total) = 0.39795E-04    rms(broyden)= 0.35367E-04
  rms(prec ) = 0.55623E-04
  weight for this iteration     100.00
  WARNING: grid for Broyden might be to small

 eigenvalues of (default mixing * dielectric matrix)
  average eigenvalue GAMMA=   2.4275
  8.5210  5.3698  3.6974  2.6443  2.2786  2.1685  2.0773  1.3107  1.1111  1.1111
  0.8406  0.9409  0.9409  0.9726

 Free energy of the ion-electron system (eV)
  ---------------------------------------------------
  alpha Z        PSCENC =         0.59273253
  Ewald energy   TEWEN  =       228.26622565
  -Hartree energ DENC   =      -596.50734624
  -exchange      EXHF   =         0.00000000
  -V(xc)+E(xc)   XCENC  =        41.81354937
  PAW double counting   =       935.76145548     -937.91436294
  entropy T*S    EENTRO =        -0.00000000
  eigenvalues    EBANDS =      -148.44938643
  atomic energy  EATOM  =       449.03812428
  Solvation  Ediel_sol  =         0.00000000
  ---------------------------------------------------
  free energy    TOTEN  =       -27.39900830 eV

  energy without entropy =      -27.39900830  energy(sigma->0) =      -27.39900830


--------------------------------------------------------------------------------------------------------




--------------------------------------- Iteration      1(  20)  ---------------------------------------


    POTLOK:  cpu time    0.0334: real time    0.0336
    SETDIJ:  cpu time    0.0250: real time    0.0250
     EDDAV:  cpu time    0.1223: real time    0.1223
       DOS:  cpu time    0.0001: real time    0.0001
    CHARGE:  cpu time    0.0351: real time    0.0351
    MIXING:  cpu time    0.0031: real time    0.0031
    --------------------------------------------
      LOOP:  cpu time    0.2189: real time    0.2191

 eigenvalue-minimisations  :   120
 total energy-change (2. order) :-0.2132002E-05  (-0.8316102E-08)
 number of electron      11.9999999 magnetization 
 augmentation part        0.3604884 magnetization 

 Broyden mixing:
  rms(total) = 0.26355E-04    rms(broyden)= 0.19051E-04
  rms(prec ) = 0.29243E-04
  weight for this iteration     100.00
  WARNING: grid for Broyden might be to small

 eigenvalues of (default mixing * dielectric matrix)
  average eigenvalue GAMMA=   2.4310
  8.5790  5.4294  3.9720  2.6968  2.6968  2.2934  1.8149  1.8149  1.2972  1.0917
  1.0917  0.8408  0.9388  0.9388  0.9685

 Free energy of the ion-electron system (eV)
  ---------------------------------------------------
  alpha Z        PSCENC =         0.59273253
  Ewald energy   TEWEN  =       228.26622565
  -Hartree energ DENC   =      -596.50696144
  -exchange      EXHF   =         0.00000000
  -V(xc)+E(xc)   XCENC  =        41.81352878
  PAW double counting   =       935.77581000     -937.92872022
  entropy T*S    EENTRO =        -0.00000000
  eigenvalues    EBANDS =      -148.44975000
  atomic energy  EATOM  =       449.03812428
  Solvation  Ediel_sol  =         0.00000000
  ---------------------------------------------------
  free energy    TOTEN  =       -27.39901043 eV

  energy without entropy =      -27.39901043  energy(sigma->0) =      -27.39901043


--------------------------------------------------------------------------------------------------------




--------------------------------------- Iteration      1(  21)  ---------------------------------------


    POTLOK:  cpu time    0.0337: real time    0.0339
    SETDIJ:  cpu time    0.0253: real time    0.0253
     EDDAV:  cpu time    0.1174: real time    0.1180
       DOS:  cpu time    0.0002: real time    0.0002
    --------------------------------------------
      LOOP:  cpu time    0.1765: real time    0.1774

 eigenvalue-minimisations  :   110
 total energy-change (2. order) :-0.8753452E-06  (-0.3684989E-08)
 number of electron      11.9999999 magnetization 
 augmentation part        0.3604884 magnetization 

 Free energy of the ion-electron system (eV)
  ---------------------------------------------------
  alpha Z        PSCENC =         0.59273253
  Ewald energy   TEWEN  =       228.26622565
  -Hartree energ DENC   =      -596.50684152
  -exchange      EXHF   =         0.00000000
  -V(xc)+E(xc)   XCENC  =        41.81352750
  PAW double counting   =       935.78829166     -937.94119912
  entropy T*S    EENTRO =        -0.00000000
  eigenvalues    EBANDS =      -148.44987228
  atomic energy  EATOM  =       449.03812428
  Solvation  Ediel_sol  =         0.00000000
  ---------------------------------------------------
  free energy    TOTEN  =       -27.39901130 eV

  energy without entropy =      -27.39901130  energy(sigma->0) =      -27.39901130


--------------------------------------------------------------------------------------------------------




 average (electrostatic) potential at core
  the test charge radii are     0.6991  0.7089  0.5201
  (the norm of the test charge is              1.0000)
       1 -59.7625       2 -73.1924       3 -42.1985       4 -42.3219       5 -43.2692
 
 
 
 E-fermi :  -5.8683     XC(G=0):  -0.8284     alpha+bet : -0.2699


 k-point     1 :       0.0000    0.0000    0.0000
  band No.  band energies     occupation 
      1     -22.4065      2.00000
      2     -15.1589      2.00000
      3     -12.1421      2.00000
      4     -10.2296      2.00000
      5      -8.1527      2.00000
      6      -6.1320      2.00000
      7      -1.6669      0.00000
      8      -0.5196      0.00000
      9       0.4775      0.00000
     10       0.7831      0.00000

 k-point     2 :       0.3333    0.0000    0.0000
  band No.  band energies     occupation 
      1     -22.4067      2.00000
      2     -15.1593      2.00000
      3     -12.1427      2.00000
      4     -10.2302      2.00000
      5      -8.1534      2.00000
      6      -6.1327      2.00000
      7      -1.6681      0.00000
      8      -0.4166      0.00000
      9       0.3030      0.00000
     10       0.5711      0.00000

 k-point     3 :       0.0000    0.0000    0.3333
  band No.  band energies     occupation 
      1     -22.4067      2.00000
      2     -15.1593      2.00000
      3     -12.1426      2.00000
      4     -10.2301      2.00000
      5      -8.1535      2.00000
      6      -6.1330      2.00000
      7      -1.6691      0.00000
      8      -0.4027      0.00000
      9       0.0496      0.00000
     10       0.9046      0.00000

 k-point     4 :       0.3333    0.0000    0.3333
  band No.  band energies     occupation 
      1     -22.4067      2.00000
      2     -15.1593      2.00000
      3     -12.1427      2.00000
      4     -10.2304      2.00000
      5      -8.1536      2.00000
      6      -6.1329      2.00000
      7      -1.6693      0.00000
      8      -0.3099      0.00000
      9       0.1209      0.00000
     10       0.5053      0.00000

 k-point     5 :      -0.3333    0.0000    0.3333
  band No.  band energies     occupation 
      1     -22.4067      2.00000
      2     -15.1592      2.00000
      3     -12.1427      2.00000
      4     -10.2304      2.00000
      5      -8.1535      2.00000
      6      -6.1329      2.00000
      7      -1.6695      0.00000
      8      -0.3076      0.00000
      9       0.1388      0.00000
     10       0.4615      0.00000


--------------------------------------------------------------------------------------------------------


 soft charge-density along one line, spin component           1
         0         1         2         3         4         5         6         7         8         9
 total charge-density along one line
 
 pseudopotential strength for first ion, spin component:           1
 10.311  13.714  -0.001   0.003   0.001   0.002  -0.010  -0.005
 13.714  18.239  -0.001   0.003   0.002   0.003  -0.013  -0.007
 -0.001  -0.001  -4.430   0.002   0.000   8.672  -0.003   0.001
  0.003   0.003   0.002  -4.436  -0.005  -0.003   8.676   0.009
  0.001   0.002   0.000  -0.005  -4.431   0.001   0.009   8.669
  0.002   0.003   8.672  -0.003   0.001 -19.115   0.005  -0.004
 -0.010  -0.013  -0.003   8.676   0.009   0.005 -19.112  -0.015
 -0.005  -0.007   0.001   0.009   8.669  -0.004  -0.015 -19.103
 total augmentation occupancy for first ion, spin component:           1
  7.903  -3.466  -0.121   0.540   0.306  -0.025   0.112   0.063
 -3.466   1.597   0.081  -0.360  -0.205   0.015  -0.070  -0.039
 -0.121   0.081   1.129  -0.056  -0.212   0.075  -0.011  -0.027
  0.540  -0.360  -0.056   1.891   0.095  -0.011   0.179   0.022
  0.306  -0.205  -0.212   0.095   1.668  -0.027   0.022   0.144
 -0.025   0.015   0.075  -0.011  -0.027   0.005  -0.002  -0.003
  0.112  -0.070  -0.011   0.179   0.022  -0.002   0.019   0.004
  0.063  -0.039  -0.027   0.022   0.144  -0.003   0.004   0.013


------------------------ aborting loop because EDIFF is reached ----------------------------------------


    CHARGE:  cpu time    0.0328: real time    0.0328
    FORLOC:  cpu time    0.0037: real time    0.0037
    FORNL :  cpu time    0.1687: real time    0.1687
    STRESS:  cpu time    0.7823: real time    0.7823
    FORCOR:  cpu time    0.0362: real time    0.0362
    FORHAR:  cpu time    0.0119: real time    0.0121
    MIXING:  cpu time    0.0026: real time    0.0026
    OFIELD:  cpu time    0.0001: real time    0.0001

  FORCE on cell =-STRESS in cart. coord.  units (eV):
  Direction    XX          YY          ZZ          XY          YZ          ZX
  --------------------------------------------------------------------------------------
  Alpha Z     0.59273     0.59273     0.59273
  Ewald      64.73607   -79.21283   242.74287   -55.96184   -27.68515    53.76924
  Hartree   192.99040   131.23418   272.28203   -23.40357   -14.98325    32.37978
  E(xc)     -45.15443   -45.91131   -44.73017    -0.29450    -0.05154     0.04447
  Local    -381.90782  -182.43544  -621.38209    76.96797    42.19713   -86.83129
  n-local   -25.82681   -21.24575   -24.34430     1.77780     0.14796    -0.11900
  augment     1.20061     0.86377     0.76097    -0.13202    -0.01617     0.04471
  Kinetic   192.53683   195.29700   173.37035     1.04587     0.37377     0.75398
  Fock        0.00000     0.00000     0.00000     0.00000     0.00000     0.00000
  -------------------------------------------------------------------------------------
  Total      -0.83242    -0.81765    -0.70761    -0.00029    -0.01725     0.04188
  in kB      -1.33368    -1.31002    -1.13372    -0.00046    -0.02764     0.06710
  external pressure =       -1.26 kB  Pullay stress =        0.00 kB


 VOLUME and BASIS-vectors are now :
 -----------------------------------------------------------------------------
  energy-cutoff  :      400.00
  volume of cell :     1000.00
      direct lattice vectors                 reciprocal lattice vectors
    10.000000000  0.000000000  0.000000000     0.100000000  0.000000000  0.000000000
     0.000000000 10.000000000  0.000000000     0.000000000  0.100000000  0.000000000
     0.000000000  0.000000000 10.000000000     0.000000000  0.000000000  0.100000000

  length of vectors
    10.000000000 10.000000000 10.000000000     0.100000000  0.100000000  0.100000000


 FORCES acting on ions
    electron-ion (+dipol)            ewald-force                    non-local-force                 convergence-correction
 -----------------------------------------------------------------------------------------------
   0.603E+02 -.240E+02 0.119E+03   -.620E+02 0.246E+02 -.122E+03   0.172E+01 -.673E+00 0.306E+01   -.429E-04 0.173E-04 -.191E-04
   -.104E+03 0.387E+02 -.116E+03   0.136E+03 -.499E+02 0.124E+03   -.321E+02 0.112E+02 -.783E+01   -.344E-04 0.502E-05 0.981E-04
   -.237E+02 0.652E+01 0.556E+02   0.266E+02 -.736E+01 -.604E+02   -.286E+01 0.841E+00 0.486E+01   -.649E-05 0.170E-05 -.132E-04
   0.556E+02 -.194E+02 0.125E+02   -.609E+02 0.212E+02 -.130E+02   0.523E+01 -.180E+01 0.449E+00   -.547E-05 0.480E-05 -.260E-05
   0.356E+02 -.103E+02 -.660E+02   -.395E+02 0.115E+02 0.716E+02   0.394E+01 -.118E+01 -.558E+01   -.671E-05 0.257E-05 0.134E-04
 -----------------------------------------------------------------------------------------------
   0.241E+02 -.837E+01 0.505E+01   0.142E-13 -.355E-14 0.000E+00   -.241E+02 0.837E+01 -.505E+01   -.959E-04 0.314E-04 0.766E-04
 
 
 POSITION                                       TOTAL-FORCE (eV/Angst)
 -----------------------------------------------------------------------------------
      5.23036      5.13095      4.42542        -0.003143      0.001415     -0.013767
      5.83284      4.89415      5.52378         0.016028     -0.004763      0.004604
      5.77317      4.97221      3.48202         0.000573     -0.000261      0.002737
      4.18930      5.48924      4.33699        -0.006509      0.000808     -0.000714
      5.21442      5.08244      6.32879        -0.006949      0.002801      0.007140
 -----------------------------------------------------------------------------------
    total drift:                                0.001742     -0.000814     -0.000526


--------------------------------------------------------------------------------------------------------



  FREE ENERGIE OF THE ION-ELECTRON SYSTEM (eV)
  ---------------------------------------------------
  free  energy   TOTEN  =       -27.39901130 eV

  energy  without entropy=      -27.39901130  energy(sigma->0) =      -27.39901130
 


--------------------------------------------------------------------------------------------------------


    POTLOK:  cpu time    0.0608: real time    0.0610


--------------------------------------------------------------------------------------------------------


 stress matrix after NEB project (eV)
     -0.83242     -0.00029      0.04188
     -0.00029     -0.81765     -0.01725
      0.04188     -0.01725     -0.70761
  FORCES: max atom, RMS     0.017343    0.011495
  FORCE total and by dimension    0.025705    0.016028
  Stress total and by dimension    1.366122    0.832419
 Finite differences:
   Step               POTIM =   2.000000000000000E-002
   Degrees of freedom DOF   =           15
  LATTYP: Found a simple cubic cell.
 ALAT       =    10.0000000000
  
  Lattice vectors:
  
 A1 = (  10.0000000000,   0.0000000000,   0.0000000000)
 A2 = (   0.0000000000,  10.0000000000,   0.0000000000)
 A3 = (   0.0000000000,   0.0000000000,  10.0000000000)


Analysis of symmetry for initial positions (statically):
=====================================================================
 Subroutine PRICEL returns:
 Original cell was already a primitive cell.
 

 Routine SETGRP: Setting up the symmetry group for a 
 simple cubic supercell.


 Subroutine GETGRP returns: Found  1 space group operations
 (whereof  1 operations were pure point group operations)
 out of a pool of 48 trial point group operations.


The static configuration has the point symmetry C_1 .


Analysis of symmetry for dynamics (positions and initial velocities):
=====================================================================
 Subroutine PRICEL returns:
 Original cell was already a primitive cell.
 

 Routine SETGRP: Setting up the symmetry group for a 
 simple cubic supercell.


 Subroutine GETGRP returns: Found  1 space group operations
 (whereof  1 operations were pure point group operations)
 out of a pool of 48 trial point group operations.


The dynamic configuration has the point symmetry C_1 .


 Subroutine INISYM returns: Found  1 space group operations
 (whereof  1 operations are pure point group operations),
 and found     1 'primitive' translations

 
 KPOINTS: K-Spacing Value to Generate K-Mesh: 0.04

Automatic generation of k-mesh.
Space group operators:
 irot       det(A)        alpha          n_x          n_y          n_z        tau_x        tau_y        tau_z
    1     1.000000     0.000000     1.000000     0.000000     0.000000     0.000000     0.000000     0.000000
 
 Subroutine IBZKPT returns following result:
 ===========================================
 
 Found      5 irreducible k-points:
 
 Following reciprocal coordinates:
            Coordinates               Weight
  0.000000  0.000000  0.000000      1.000000
  0.333333  0.000000  0.000000      2.000000
  0.000000  0.000000  0.333333      2.000000
  0.333333  0.000000  0.333333      2.000000
 -0.333333  0.000000  0.333333      2.000000
 
 Following cartesian coordinates:
            Coordinates               Weight
  0.000000  0.000000  0.000000      1.000000
  0.033333  0.000000  0.000000      2.000000
  0.000000  0.000000  0.033333      2.000000
  0.033333  0.000000  0.033333      2.000000
 -0.033333  0.000000  0.033333      2.000000
 
    WAVPRE:  cpu time    0.6806: real time    0.7438
    FEWALD:  cpu time    0.0002: real time    0.0002
    ORTHCH:  cpu time    0.0186: real time    0.0190
     LOOP+:  cpu time    6.5089: real time    6.5936


--------------------------------------- Iteration      2(   1)  ---------------------------------------


    POTLOK:  cpu time    0.0598: real time    0.0816
    SETDIJ:  cpu time    0.0272: real time    0.0272
     EDDAV:  cpu time    0.1112: real time    0.1119
       DOS:  cpu time    0.0001: real time    0.0001
    CHARGE:  cpu time    0.0356: real time    0.0356
    MIXING:  cpu time    0.0020: real time    0.0020
    --------------------------------------------
      LOOP:  cpu time    0.2358: real time    0.2584

 eigenvalue-minimisations  :   100
 total energy-change (2. order) : 0.1153857E-01  (-0.9714146E-01)
 number of electron      11.9999999 magnetization 
 augmentation part        0.3634783 magnetization 

 Broyden mixing:
  rms(total) = 0.23056E-01    rms(broyden)= 0.23002E-01
  rms(prec ) = 0.26492E-01
  weight for this iteration     100.00

 Free energy of the ion-electron system (eV)
  ---------------------------------------------------
  alpha Z        PSCENC =         0.59273253
  Ewald energy   TEWEN  =       229.50753252
  -Hartree energ DENC   =      -597.37278156
  -exchange      EXHF   =         0.00000000
[...]
    STRESS:  cpu time    0.7652: real time    0.7652
    FORCOR:  cpu time    0.0351: real time    0.0351
    FORHAR:  cpu time    0.0115: real time    0.0115
    MIXING:  cpu time    0.0023: real time    0.0023
    OFIELD:  cpu time    0.0000: real time    0.0000

  FORCE on cell =-STRESS in cart. coord.  units (eV):
  Direction    XX          YY          ZZ          XY          YZ          ZX
  --------------------------------------------------------------------------------------
  Alpha Z     0.59273     0.59273     0.59273
  Ewald      65.94070   -79.09169   242.86319   -56.32814   -27.50815    53.11197
  Hartree   193.56827   131.65017   272.48428   -23.46187   -15.02051    32.45999
  E(xc)     -45.20722   -45.96723   -44.79192    -0.29555    -0.05187     0.04529
  Local    -383.42996  -183.04562  -621.62012    77.28052    42.16290   -86.59598
  n-local   -25.97817   -21.34713   -24.51649     1.79414     0.13238    -0.06651
  augment     1.20232     0.86945     0.76740    -0.13056    -0.01658     0.04725
  Kinetic   192.64500   195.53287   174.02290     1.09183     0.37058     0.74450
  Fock        0.00000     0.00000     0.00000     0.00000     0.00000     0.00000
  -------------------------------------------------------------------------------------
  Total      -0.66632    -0.80644    -0.19804    -0.04962     0.06875    -0.25349
  in kB      -1.06756    -1.29206    -0.31729    -0.07950     0.11015    -0.40613
  external pressure =       -0.89 kB  Pullay stress =        0.00 kB


 VOLUME and BASIS-vectors are now :
 -----------------------------------------------------------------------------
  energy-cutoff  :      400.00
  volume of cell :     1000.00
      direct lattice vectors                 reciprocal lattice vectors
    10.000000000  0.000000000  0.000000000     0.100000000  0.000000000  0.000000000
     0.000000000 10.000000000  0.000000000     0.000000000  0.100000000  0.000000000
     0.000000000  0.000000000 10.000000000     0.000000000  0.000000000  0.100000000

  length of vectors
    10.000000000 10.000000000 10.000000000     0.100000000  0.100000000  0.100000000


 FORCES acting on ions
    electron-ion (+dipol)            ewald-force                    non-local-force                 convergence-correction
 -----------------------------------------------------------------------------------------------
   0.604E+02 -.240E+02 0.120E+03   -.620E+02 0.247E+02 -.123E+03   0.171E+01 -.668E+00 0.301E+01   -.480E-04 0.172E-04 -.134E-04
   -.105E+03 0.392E+02 -.116E+03   0.138E+03 -.505E+02 0.123E+03   -.323E+02 0.112E+02 -.791E+01   0.608E-04 -.203E-04 0.138E-04
   -.237E+02 0.653E+01 0.556E+02   0.266E+02 -.736E+01 -.604E+02   -.287E+01 0.843E+00 0.486E+01   -.132E-05 0.702E-06 -.688E-05
   0.557E+02 -.194E+02 0.126E+02   -.609E+02 0.212E+02 -.130E+02   0.523E+01 -.180E+01 0.454E+00   -.218E-05 0.121E-05 0.200E-05
   0.368E+02 -.106E+02 -.667E+02   -.414E+02 0.120E+02 0.730E+02   0.423E+01 -.127E+01 -.580E+01   -.901E-05 0.263E-05 0.219E-04
 -----------------------------------------------------------------------------------------------
   0.240E+02 -.834E+01 0.539E+01   -.142E-13 -.711E-14 0.142E-13   -.240E+02 0.833E+01 -.539E+01   0.242E-06 0.147E-05 0.174E-04
 
 
 POSITION                                       TOTAL-FORCE (eV/Angst)
 -----------------------------------------------------------------------------------
      5.23036      5.13095      4.42542         0.051781     -0.014927     -0.093073
      5.83284      4.89415      5.52378         0.303208     -0.091310     -0.462784
      5.77317      4.97221      3.48202        -0.008308      0.003967     -0.004899
      4.18930      5.48924      4.33699        -0.007289      0.000150      0.006693
      5.21442      5.08244      6.30879        -0.339392      0.102120      0.554063
 -----------------------------------------------------------------------------------
    total drift:                                0.001794     -0.000849     -0.000519


--------------------------------------------------------------------------------------------------------



  FREE ENERGIE OF THE ION-ELECTRON SYSTEM (eV)
  ---------------------------------------------------
  free  energy   TOTEN  =       -27.39346935 eV

  energy  without entropy=      -27.39346935  energy(sigma->0) =      -27.39346935
 
 d Force =-0.1067102E-02[-0.222E-01, 0.200E-01]  d Energy =-0.5397686E-03-0.527E-03
 d Force =-0.2862729E+01[-0.292E+01,-0.280E+01]  d Ewald  =-0.2862548E+01-0.182E-03


--------------------------------------------------------------------------------------------------------


    POTLOK:  cpu time    0.0598: real time    0.0598


--------------------------------------------------------------------------------------------------------


 stress matrix after NEB project (eV)
     -0.66632     -0.04962     -0.25349
     -0.04962     -0.80644      0.06875
     -0.25349      0.06875     -0.19804
  FORCES: max atom, RMS     0.657724    0.389568
  FORCE total and by dimension    0.871101    0.554063
  Stress total and by dimension    1.129796    0.806441
 Finite differences progress:
  Degree of freedom:  15/ 15
  Displacement:        2/  2
  Total:              30/ 30
 
 SECOND DERIVATIVES (NOT SYMMETRIZED)
 ------------------------------------
               1X          1Y          1Z          2X          2Y          2Z          3X          3Y          3Z          4X          4Y          4Z          5X          5Y          5Z 
  1X   -57.030770   15.478569   -9.022068   19.589929   -5.870190   22.346112   12.248826   -2.527039  -10.539778   25.151199   -7.047301   -0.070400    0.040816   -0.034039   -2.713866
  1Y    15.437673  -17.946249    4.939511   -5.711308    6.458044   -8.864113   -2.515087    4.765601    3.118342   -7.018036    6.953427   -0.003478   -0.193242   -0.230822    0.809738
  1Z    -9.051851    4.961337  -78.545998   16.893978   -7.012917   48.124018  -10.941123    3.256994   20.906962    0.140956   -0.078263    5.622498    2.958040   -1.127150    3.892520
  2X    19.601115   -5.715703   16.827782  -35.465384   10.342973   -6.160254   -1.305867    0.744966   -0.658738    1.133070   -1.484904    3.301909   16.037066   -3.887331  -13.310699
  2Y    -5.867555    6.447145   -6.979743   10.332022   -9.308033    4.056634    0.684602    0.573453    0.150565   -1.421210   -2.428924   -1.225999   -3.727858    4.716360    3.998543
  2Z    22.418245   -8.899883   48.137910   -6.203029    4.074336  -74.636531    1.518160   -0.592121    3.452248    1.052816   -0.458913    0.575788  -18.786193    5.876581   22.470584
  3X    12.255209   -2.517773  -10.909787   -1.310663    0.685120    1.518128  -11.620475    2.850010   10.930805    0.957982   -0.525083   -1.981685   -0.282052   -0.492274    0.442538
  3Y    -2.524594    4.764682    3.244094    0.744610    0.582213   -0.592578    2.847242   -3.269674   -3.105834   -0.585540   -0.560771    0.664479   -0.481718   -1.516450   -0.210161
  3Z   -10.569124    3.130950   20.913364   -0.658912    0.150283    3.443048   10.959406   -3.118563  -24.441178    0.177355   -0.073240   -0.291591    0.091276   -0.089430    0.376357
  4X    25.156832   -7.051522    0.149628    1.128301   -1.421548    1.053324    0.957986   -0.585788    0.176917  -26.974650    8.547074   -1.420092   -0.268470    0.511785    0.040223
  4Y    -7.011418    6.952394   -0.077443   -1.484481   -2.421129   -0.459913   -0.524827   -0.561039   -0.072981    8.513208   -5.026866    0.578466    0.507518    1.056639    0.031870
  4Z    -0.080075   -0.002402    5.624610    3.301499   -1.226770    0.563692   -1.981290    0.664547   -0.292881   -1.411593    0.578060   -5.533110    0.171459   -0.013435   -0.362311
  5X     0.044569   -0.193377    2.958634   16.033520   -3.734658  -18.761247   -0.282265   -0.481936    0.091182   -0.269287    0.507466    0.171472  -15.526537    3.902506   15.539959
  5Y    -0.033330   -0.233347   -1.126300   -3.880395    4.723921    5.857701   -0.492141   -1.516480   -0.089317    0.511567    1.056923   -0.013311    3.894300   -4.031017   -4.628774
  5Z    -2.716152    0.810407    3.893152  -13.332091    4.014859   22.463649    0.442881   -0.209940    0.374929    0.040188    0.031777   -0.362446   15.565175   -4.647102  -26.369285
 
 
 Eigenvectors and eigenvalues of the dynamical matrix
 ----------------------------------------------------
 
 
   1 f  =  100.256035 THz   629.927244 2PiTHz 3344.181249 cm-1   414.625780 meV
             X         Y         Z           dx          dy          dz
      5.230358  5.130951  4.425419     0.035149   -0.012097    0.003029  
      5.832845  4.894153  5.523778     0.134388   -0.039784   -0.214602  
      5.773172  4.972212  3.482016    -0.019619    0.006130    0.020679  
      4.189303  5.489243  4.336994    -0.045953    0.015552    0.004553  
      5.214422  5.082441  6.328793    -0.559069    0.169101    0.767160  
 
   2 f  =   91.231074 THz   573.221747 2PiTHz 3043.140989 cm-1   377.301532 meV
             X         Y         Z           dx          dy          dz
      5.230358  5.130951  4.425419     0.223321   -0.070341   -0.209296  
      5.832845  4.894153  5.523778    -0.007267    0.002142    0.012190  
      5.773172  4.972212  3.482016    -0.433191    0.126775    0.748834  
      4.189303  5.489243  4.336994    -0.345133    0.118730   -0.033305  
      5.214422  5.082441  6.328793     0.031512   -0.009727   -0.035771  
 
   3 f  =   88.359883 THz   555.181521 2PiTHz 2947.368364 cm-1   365.427235 meV
             X         Y         Z           dx          dy          dz
      5.230358  5.130951  4.425419    -0.184511    0.066345   -0.119950  
      5.832845  4.894153  5.523778     0.007872   -0.002696    0.000788  
      5.773172  4.972212  3.482016    -0.213910    0.063735    0.329570  
      4.189303  5.489243  4.336994     0.838104   -0.287311    0.044752  
      5.214422  5.082441  6.328793    -0.014163    0.003713    0.038433  
 
   4 f  =   49.899073 THz   313.525120 2PiTHz 1664.453850 cm-1   206.366050 meV
             X         Y         Z           dx          dy          dz
      5.230358  5.130951  4.425419    -0.308620    0.123833   -0.650538  
      5.832845  4.894153  5.523778     0.252152   -0.100327    0.504993  
      5.773172  4.972212  3.482016     0.215309   -0.073968    0.006677  
      4.189303  5.489243  4.336994    -0.121513    0.035220    0.224476  
      5.214422  5.082441  6.328793     0.032561   -0.014952    0.134169  
 
   5 f  =   43.346721 THz   272.355481 2PiTHz 1445.890934 cm-1   179.267693 meV
             X         Y         Z           dx          dy          dz
      5.230358  5.130951  4.425419    -0.006401    0.004350   -0.084062  
      5.832845  4.894153  5.523778     0.134348   -0.054883    0.319368  
      5.773172  4.972212  3.482016    -0.540963    0.196476   -0.389427  
      4.189303  5.489243  4.336994     0.017406    0.011172   -0.612085  
      5.214422  5.082441  6.328793     0.043135   -0.017201    0.098419  
 
   6 f  =   39.587561 THz   248.735982 2PiTHz 1320.498857 cm-1   163.721051 meV
             X         Y         Z           dx          dy          dz
      5.230358  5.130951  4.425419     0.323481   -0.105858   -0.175616  
      5.832845  4.894153  5.523778    -0.385452    0.131962    0.006714  
      5.773172  4.972212  3.482016    -0.196078    0.073584   -0.239326  
      4.189303  5.489243  4.336994     0.055029   -0.028864    0.384966  
      5.214422  5.082441  6.328793     0.461852   -0.171794    0.437334  
 
   7 f  =   33.870523 THz   212.814770 2PiTHz 1129.798987 cm-1   140.077272 meV
             X         Y         Z           dx          dy          dz
      5.230358  5.130951  4.425419    -0.002724   -0.013532   -0.001251  
      5.832845  4.894153  5.523778    -0.081432   -0.236216   -0.006066  
      5.773172  4.972212  3.482016     0.160227    0.475430    0.011694  
      4.189303  5.489243  4.336994    -0.094303   -0.277167   -0.003961  
      5.214422  5.082441  6.328793     0.248027    0.733402    0.019302  
 
   8 f  =   31.562834 THz   198.315136 2PiTHz 1052.822792 cm-1   130.533437 meV
             X         Y         Z           dx          dy          dz
      5.230358  5.130951  4.425419    -0.160911   -0.479201   -0.014425  
      5.832845  4.894153  5.523778     0.055050    0.158192    0.005876  
      5.773172  4.972212  3.482016     0.170742    0.515576    0.010914  
      4.189303  5.489243  4.336994     0.208673    0.610663    0.024452  
      5.214422  5.082441  6.328793    -0.027265   -0.056892   -0.007325  
 
   9 f  =   31.008676 THz   194.833256 2PiTHz 1034.338058 cm-1   128.241621 meV
             X         Y         Z           dx          dy          dz
      5.230358  5.130951  4.425419    -0.205330    0.060549    0.078035  
      5.832845  4.894153  5.523778    -0.035785    0.016365   -0.111701  
      5.773172  4.972212  3.482016     0.372373   -0.124119    0.286280  
      4.189303  5.489243  4.336994    -0.017420    0.028081   -0.525127  
      5.214422  5.082441  6.328793     0.490917   -0.175257    0.386614  
 
  10 f  =    0.269794 THz     1.695163 2PiTHz    8.999346 cm-1     1.115777 meV
             X         Y         Z           dx          dy          dz
      5.230358  5.130951  4.425419    -0.030199   -0.712349    0.224161  
      5.832845  4.894153  5.523778    -0.038887   -0.450645    0.314035  
      5.773172  4.972212  3.482016    -0.007371   -0.278639    0.077746  
      4.189303  5.489243  4.336994    -0.008499   -0.212099    0.035483  
      5.214422  5.082441  6.328793    -0.011586   -0.057677    0.068347  
 
  11 f  =    0.200438 THz     1.259388 2PiTHz    6.685885 cm-1     0.828944 meV
             X         Y         Z           dx          dy          dz
      5.230358  5.130951  4.425419    -0.186388    0.275614    0.486900  
      5.832845  4.894153  5.523778    -0.370445    0.232063    0.604255  
      5.773172  4.972212  3.482016    -0.026662    0.060437    0.159306  
      4.189303  5.489243  4.336994    -0.039221    0.112987    0.104418  
      5.214422  5.082441  6.328793    -0.120631    0.083273    0.139938  
 
  12 f  =    0.026181 THz     0.164499 2PiTHz    0.873300 cm-1     0.108275 meV
             X         Y         Z           dx          dy          dz
      5.230358  5.130951  4.425419     0.582476    0.081028    0.256904  
      5.832845  4.894153  5.523778     0.630219    0.091725    0.277374  
      5.773172  4.972212  3.482016     0.163232    0.009444    0.073695  
      4.189303  5.489243  4.336994     0.172142    0.035350    0.074568  
      5.214422  5.082441  6.328793     0.173195    0.038313    0.074560  
 
  13 f/i=    0.814977 THz     5.120650 2PiTHz   27.184698 cm-1     3.370474 meV
             X         Y         Z           dx          dy          dz
      5.230358  5.130951  4.425419    -0.040609   -0.282896   -0.133805  
      5.832845  4.894153  5.523778     0.011039    0.566237    0.013100  
      5.773172  4.972212  3.482016    -0.098369   -0.497860   -0.018459  
      4.189303  5.489243  4.336994     0.056464    0.102903   -0.094837  
      5.214422  5.082441  6.328793     0.087959    0.539101   -0.021889  
 
  14 f/i=    1.157536 THz     7.273011 2PiTHz   38.611234 cm-1     4.787185 meV
             X         Y         Z           dx          dy          dz
      5.230358  5.130951  4.425419     0.454238    0.131718   -0.245239  
      5.832845  4.894153  5.523778    -0.416364   -0.340911    0.128392  
      5.773172  4.972212  3.482016     0.222665   -0.191061    0.020492  
      4.189303  5.489243  4.336994     0.259460    0.367731   -0.248982  
      5.214422  5.082441  6.328793    -0.173251    0.155057   -0.070795  
 
  15 f/i=    1.442271 THz     9.062054 2PiTHz   48.108970 cm-1     5.964754 meV
             X         Y         Z           dx          dy          dz
      5.230358  5.130951  4.425419     0.252880   -0.207636   -0.207428  
      5.832845  4.894153  5.523778    -0.176866    0.429687    0.163874  
      5.773172  4.972212  3.482016     0.329551    0.239441    0.037428  
      4.189303  5.489243  4.336994    -0.061358   -0.495559   -0.241970  
      5.214422  5.082441  6.328793    -0.290387   -0.207442   -0.067517  
 
 Finite differences POTIM=  2.000000000000000E-002
  LATTYP: Found a simple cubic cell.
 ALAT       =    10.0000000000
  
  Lattice vectors:
  
 A1 = (  10.0000000000,   0.0000000000,   0.0000000000)
 A2 = (   0.0000000000,  10.0000000000,   0.0000000000)
 A3 = (   0.0000000000,   0.0000000000,  10.0000000000)


Analysis of symmetry for initial positions (statically):
=====================================================================
 Subroutine PRICEL returns:
 Original cell was already a primitive cell.
 

 Routine SETGRP: Setting up the symmetry group for a 
 simple cubic supercell.


 Subroutine GETGRP returns: Found  1 space group operations
 (whereof  1 operations were pure point group operations)
 out of a pool of 48 trial point group operations.


The static configuration has the point symmetry C_1 .


Analysis of symmetry for dynamics (positions and initial velocities):
=====================================================================
 Subroutine PRICEL returns:
 Original cell was already a primitive cell.
 

 Routine SETGRP: Setting up the symmetry group for a 
 simple cubic supercell.


 Subroutine GETGRP returns: Found  1 space group operations
 (whereof  1 operations were pure point group operations)
 out of a pool of 48 trial point group operations.


The dynamic configuration has the point symmetry C_1 .


 Subroutine INISYM returns: Found  1 space group operations
 (whereof  1 operations are pure point group operations),
 and found     1 'primitive' translations

 
 KPOINTS: K-Spacing Value to Generate K-Mesh: 0.04

Automatic generation of k-mesh.
Space group operators:
 irot       det(A)        alpha          n_x          n_y          n_z        tau_x        tau_y        tau_z
    1     1.000000     0.000000     1.000000     0.000000     0.000000     0.000000     0.000000     0.000000
 
 Subroutine IBZKPT returns following result:
 ===========================================
 
 Found      5 irreducible k-points:
 
 Following reciprocal coordinates:
            Coordinates               Weight
  0.000000  0.000000  0.000000      1.000000
  0.333333  0.000000  0.000000      2.000000
  0.000000  0.000000  0.333333      2.000000
  0.333333  0.000000  0.333333      2.000000
 -0.333333  0.000000  0.333333      2.000000
 
 Following cartesian coordinates:
            Coordinates               Weight
  0.000000  0.000000  0.000000      1.000000
  0.033333  0.000000  0.000000      2.000000
  0.000000  0.000000  0.033333      2.000000
  0.033333  0.000000  0.033333      2.000000
 -0.033333  0.000000  0.033333      2.000000
 
 writing wavefunctions
     LOOP+:  cpu time    4.9125: real time    5.1817
    4ORBIT:  cpu time    0.0000: real time    0.0000

 total amount of memory used by VASP MPI-rank0    77195. kBytes
=======================================================================

   base      :      30000. kBytes
   nonl-proj :      18948. kBytes
   fftplans  :      15236. kBytes
   grid      :      11536. kBytes
   one-center:         15. kBytes
   wavefun   :       1460. kBytes
 
  
  
 General timing and accounting informations for this job:
 ========================================================
  
                  Total CPU time used (sec):      134.988
                            User time (sec):      133.737
                          System time (sec):        1.250
                         Elapsed time (sec):      141.834
  
                   Maximum memory used (kb):      361592.
                   Average memory used (kb):           0.
  
                          Minor page faults:       183022
                          Major page faults:          877
                 Voluntary context switches:         6526
