 vasp.6.4.2 20Jul23 (build Mar  7 2024 19:08:38) complex                         
 executed on             LinuxGNU date 2025.02.27  15:45:48
 running   64 mpi-ranks, with    1 threads/rank, on    4 nodes
 distrk:  each k-point on   64 cores,    1 groups
 distr:  one band on NCORE=   1 cores,   64 groups


--------------------------------------------------------------------------------------------------------


 INCAR:
   SYSTEM = CO on Ni111 - frequencies
   ENMAX = 400
   ISMEAR = 2
   SIGMA = 0.2
   ALGO = Fast
   EDIFF = 1E-6
   NSW = 100
   IBRION = 5

 POTCAR:    PAW_PBE Ni 02Aug2007                  
 POTCAR:    PAW_PBE C 08Apr2002                   
 POTCAR:    PAW_PBE O 08Apr2002                   
 POTCAR:    PAW_PBE Ni 02Aug2007                  
   VRHFIN =Ni:                                                                                      
   LEXCH  = PE                                                                                      
   EATOM  =  1077.6739 eV,   79.2068 Ry                                                             
                                                                                                    
   TITEL  = PAW_PBE Ni 02Aug2007                                                                    
   LULTRA =        F    use ultrasoft PP ?                                                          
   IUNSCR =        1    unscreen: 0-lin 1-nonlin 2-no                                               
   RPACOR =    2.000    partial core radius                                                         
   POMASS =   58.690; ZVAL   =   10.000    mass and valenz                                          
   RCORE  =    2.300    outmost cutoff radius                                                       
   RWIGS  =    2.430; RWIGS  =    1.286    wigner-seitz radius (au A)                               
   ENMAX  =  269.532; ENMIN  =  202.149 eV                                                          
   RCLOC  =    1.201    cutoff for local pot                                                        
   LCOR   =        T    correct aug charges                                                         
   LPAW   =        T    paw PP                                                                      
   EAUG   =  544.565                                                                                
   DEXC   =    0.000                                                                                
   RMAX   =    2.357    core radius for proj-oper                                                   
   RAUG   =    1.300    factor for augmentation sphere                                              
   RDEP   =    2.390    radius for radial grids                                                     
   RDEPT  =    1.838    core radius for aug-charge                                                  
                                                                                                    
   Atomic configuration                                                                             
    9 entries                                                                                       
     n  l   j            E        occ.                                                              
     1  0  0.50     -8206.4253   2.0000                                                             
     2  0  0.50      -976.1748   2.0000                                                             
     2  1  1.50      -839.0571   6.0000                                                             
     3  0  0.50      -105.9991   2.0000                                                             
     3  1  1.50       -66.4603   6.0000                                                             
     3  2  2.50        -4.6458   9.0000                                                             
     4  0  0.50        -4.4926   1.0000                                                             
     4  1  1.50        -4.0817   0.0000                                                             
     4  3  2.50        -1.3606   0.0000                                                             
   Description                                                                                      
     l       E           TYP  RCUT    TYP  RCUT                                                     
     2     -4.6457903     23  2.300                                                                 
     2     -6.0063729     23  2.300                                                                 
     0     -4.4925590     23  2.300                                                                 
     0      5.0102601     23  2.300                                                                 
     1     -2.7211652     23  2.300                                                                 
     1     16.5183231     23  2.300                                                                 
  local pseudopotential read in
  partial core-charges read in
  partial kinetic energy density read in
  atomic valenz-charges read in
  non local Contribution for L=           2  read in
    real space projection operators read in
  non local Contribution for L=           2  read in
    real space projection operators read in
  non local Contribution for L=           0  read in
    real space projection operators read in
  non local Contribution for L=           0  read in
    real space projection operators read in
  non local Contribution for L=           1  read in
    real space projection operators read in
  non local Contribution for L=           1  read in
    real space projection operators read in
    PAW grid and wavefunctions read in

   number of l-projection  operators is LMAX  =           6
   number of lm-projection operators is LMMAX =          18

 POTCAR:    PAW_PBE C 08Apr2002                   
   VRHFIN =C: s2p2                                                                                  
   LEXCH  = PE                                                                                      
   EATOM  =   147.1560 eV,   10.8157 Ry                                                             
                                                                                                    
   TITEL  = PAW_PBE C 08Apr2002                                                                     
   LULTRA =        F    use ultrasoft PP ?                                                          
   IUNSCR =        1    unscreen: 0-lin 1-nonlin 2-no                                               
   RPACOR =    1.200    partial core radius                                                         
   POMASS =   12.011; ZVAL   =    4.000    mass and valenz                                          
   RCORE  =    1.500    outmost cutoff radius                                                       
   RWIGS  =    1.630; RWIGS  =    0.863    wigner-seitz radius (au A)                               
   ENMAX  =  400.000; ENMIN  =  300.000 eV                                                          
   ICORE  =        2    local potential                                                             
   LCOR   =        T    correct aug charges                                                         
   LPAW   =        T    paw PP                                                                      
   EAUG   =  644.873                                                                                
   DEXC   =    0.000                                                                                
   RMAX   =    1.529    core radius for proj-oper                                                   
   RAUG   =    1.300    factor for augmentation sphere                                              
   RDEP   =    1.501    radius for radial grids                                                     
   RDEPT  =    1.300    core radius for aug-charge                                                  
                                                                                                    
   Atomic configuration                                                                             
    4 entries                                                                                       
     n  l   j            E        occ.                                                              
     1  0  0.50      -273.3789   2.0000                                                             
     2  0  0.50       -13.7508   2.0000                                                             
     2  1  0.50        -5.2854   2.0000                                                             
     3  2  1.50        -5.4423   0.0000                                                             
   Description                                                                                      
     l       E           TYP  RCUT    TYP  RCUT                                                     
     0    -13.7508458     23  1.200                                                                 
     0     -8.2022199     23  1.200                                                                 
     1     -5.2854383     23  1.500                                                                 
     1     34.0145650     23  1.500                                                                 
     2     -5.4423304      7  1.500                                                                 
  local pseudopotential read in
  partial core-charges read in
  partial kinetic energy density read in
  atomic valenz-charges read in
  non local Contribution for L=           0  read in
    real space projection operators read in
  non local Contribution for L=           0  read in
    real space projection operators read in
  non local Contribution for L=           1  read in
    real space projection operators read in
  non local Contribution for L=           1  read in
    real space projection operators read in
    PAW grid and wavefunctions read in

   number of l-projection  operators is LMAX  =           4
   number of lm-projection operators is LMMAX =           8

 POTCAR:    PAW_PBE O 08Apr2002                   
   VRHFIN =O: s2p4                                                                                  
   LEXCH  = PE                                                                                      
   EATOM  =   432.3788 eV,   31.7789 Ry                                                             
                                                                                                    
   TITEL  = PAW_PBE O 08Apr2002                                                                     
   LULTRA =        F    use ultrasoft PP ?                                                          
   IUNSCR =        1    unscreen: 0-lin 1-nonlin 2-no                                               
   RPACOR =    1.200    partial core radius                                                         
   POMASS =   16.000; ZVAL   =    6.000    mass and valenz                                          
   RCORE  =    1.520    outmost cutoff radius                                                       
   RWIGS  =    1.550; RWIGS  =    0.820    wigner-seitz radius (au A)                               
   ENMAX  =  400.000; ENMIN  =  300.000 eV                                                          
   ICORE  =        2    local potential                                                             
   LCOR   =        T    correct aug charges                                                         
   LPAW   =        T    paw PP                                                                      
   EAUG   =  605.392                                                                                
   DEXC   =    0.000                                                                                
   RMAX   =    1.553    core radius for proj-oper                                                   
   RAUG   =    1.300    factor for augmentation sphere                                              
   RDEP   =    1.550    radius for radial grids                                                     
   RDEPT  =    1.329    core radius for aug-charge                                                  
                                                                                                    
   Atomic configuration                                                                             
    4 entries                                                                                       
     n  l   j            E        occ.                                                              
     1  0  0.50      -514.6923   2.0000                                                             
     2  0  0.50       -23.9615   2.0000                                                             
     2  1  0.50        -9.0305   4.0000                                                             
     3  2  1.50        -9.5241   0.0000                                                             
   Description                                                                                      
     l       E           TYP  RCUT    TYP  RCUT                                                     
     0    -23.9615318     23  1.200                                                                 
     0     -9.5240782     23  1.200                                                                 
     1     -9.0304911     23  1.520                                                                 
     1      8.1634956     23  1.520                                                                 
     2     -9.5240782      7  1.500                                                                 
  local pseudopotential read in
  partial core-charges read in
  partial kinetic energy density read in
  kinetic energy density of atom read in
  atomic valenz-charges read in
  non local Contribution for L=           0  read in
    real space projection operators read in
  non local Contribution for L=           0  read in
    real space projection operators read in
  non local Contribution for L=           1  read in
    real space projection operators read in
  non local Contribution for L=           1  read in
    real space projection operators read in
    PAW grid and wavefunctions read in

   number of l-projection  operators is LMAX  =           4
   number of lm-projection operators is LMMAX =           8

  PAW_PBE Ni 02Aug2007                  :
 energy of atom  1       EATOM=-1077.6739
 kinetic energy error for atom=    0.0101 (will be added to EATOM!!)
  PAW_PBE C 08Apr2002                   :
 energy of atom  2       EATOM= -147.1560
 kinetic energy error for atom=    0.0288 (will be added to EATOM!!)
  PAW_PBE O 08Apr2002                   :
 energy of atom  3       EATOM= -432.3788
 kinetic energy error for atom=    0.1156 (will be added to EATOM!!)


 POSCAR: Ni - (111) + CO on-top
  positions in direct lattice
  velocities in cartesian coordinates
 exchange correlation table for  LEXCH =        8
   RHO(1)=    0.500       N(1)  =     2000
   RHO(2)=  100.500       N(2)  =     4000

 VTST: version 4.1, (05/19/21)

 CHAIN: initializing optimizer
 
 OPT: Using VASP Dynamics algorithm
 CHAIN: Read ICHAIN            0

 POSCAR: Ni - (111) + CO on-top
  positions in direct lattice
  velocities in cartesian coordinates



--------------------------------------------------------------------------------------------------------


 ion  position               nearest neighbor table
   1  0.000  0.000  0.002-   2 2.47   2 2.47   2 2.47
   2  0.333  0.667  0.111-   1 2.47   1 2.47   1 2.47   3 2.48   3 2.48   3 2.48
   3  0.667  0.333  0.222-   2 2.48   2 2.48   2 2.48   4 2.48   4 2.48   4 2.48
   4  0.000  0.000  0.332-   3 2.48   3 2.48   3 2.48   5 2.51   5 2.51   5 2.51
   5  0.333  0.667  0.444-   6 1.75   4 2.51   4 2.51   4 2.51
   6  0.333  0.667  0.540-   7 1.16   5 1.75
   7  0.333  0.667  0.603-   6 1.16

  LATTYP: Found a hexagonal cell.
 ALAT       =     2.4960869334
 C/A-ratio  =     7.3484692086
  
  Lattice vectors:
  
 A1 = (   2.4960869334,   0.0000000000,   0.0000000000)
 A2 = (  -1.2480434667,   2.1616745720,   0.0000000000)
 A3 = (   0.0000000000,   0.0000000000,  18.3424179720)


Analysis of symmetry for initial positions (statically):
=====================================================================
 Subroutine PRICEL returns:
 Original cell was already a primitive cell.
 

 Routine SETGRP: Setting up the symmetry group for a 
 hexagonal supercell.


 Subroutine GETGRP returns: Found  6 space group operations
 (whereof  6 operations were pure point group operations)
 out of a pool of 24 trial point group operations.


The static configuration has the point symmetry C_3v.


Analysis of symmetry for dynamics (positions and initial velocities):
=====================================================================
 Subroutine PRICEL returns:
 Original cell was already a primitive cell.
 

 Routine SETGRP: Setting up the symmetry group for a 
 hexagonal supercell.


 Subroutine GETGRP returns: Found  6 space group operations
 (whereof  6 operations were pure point group operations)
 out of a pool of 24 trial point group operations.


The dynamic configuration has the point symmetry C_3v.


Analysis of constrained symmetry for selective dynamics:
=====================================================================
 Subroutine PRICEL returns:
 Original cell was already a primitive cell.
 

 Routine SETGRP: Setting up the symmetry group for a 
 hexagonal supercell.


 Subroutine GETGRP returns: Found  6 space group operations
 (whereof  6 operations were pure point group operations)
 out of a pool of 24 trial point group operations.


The constrained configuration has the point symmetry C_3v.


 Subroutine INISYM returns: Found  6 space group operations
 (whereof  6 operations are pure point group operations),
 and found     1 'primitive' translations


----------------------------------------------------------------------------------------

                                     Primitive cell                                     

  volume of cell :      98.9707

  direct lattice vectors                    reciprocal lattice vectors
     2.496086933  0.000000000  0.000000000     0.400627072  0.231302161 -0.000000000
    -1.248043467  2.161674572  0.000000000     0.000000000  0.462604322  0.000000000
     0.000000000  0.000000000 18.342417972     0.000000000 -0.000000000  0.054518439

  length of vectors
     2.496086933  2.496086827 18.342417972     0.462604302  0.462604322  0.054518439

  position of ions in fractional coordinates (direct lattice)
     0.000000000  0.000000000  0.002330331
     0.333333330  0.666666670  0.111468575
     0.666666670  0.333333330  0.221808973
     0.000000000  0.000000000  0.332169553
     0.333333330  0.666666670  0.444084981
     0.333333330  0.666666670  0.539623043
     0.333333330  0.666666670  0.602662031

  ion indices of the primitive-cell ions
   primitive index   ion index
                 1           1
                 2           2
                 3           3
                 4           4
                 5           5
                 6           6
                 7           7

----------------------------------------------------------------------------------------



 KPOINTS: k-points                                

Automatic generation of k-mesh.
 Grid dimensions read from file:
 generate k-points for:    9    9    1

 Generating k-lattice:

  Cartesian coordinates                     Fractional coordinates (reciprocal lattice)
     0.044514119  0.025700240 -0.000000000     0.111111111 -0.000000000  0.000000000
     0.000000000  0.051400480  0.000000000     0.000000000  0.111111111  0.000000000
     0.000000000 -0.000000000  0.054518439     0.000000000  0.000000000  1.000000000

  Length of vectors
     0.051400478  0.051400480  0.054518439

  Shift w.r.t. Gamma in fractional coordinates (k-lattice)
     0.000000000  0.000000000  0.000000000

 
 Subroutine IBZKPT returns following result:
 ===========================================
 
 Found     12 irreducible k-points:
 
 Following reciprocal coordinates:
            Coordinates               Weight
  0.000000  0.000000  0.000000      1.000000
  0.111111  0.000000  0.000000      6.000000
  0.222222  0.000000  0.000000      6.000000
  0.333333  0.000000  0.000000      6.000000
  0.444444  0.000000  0.000000      6.000000
  0.111111  0.111111  0.000000      6.000000
  0.222222  0.111111  0.000000     12.000000
  0.333333  0.111111  0.000000     12.000000
  0.444444  0.111111  0.000000      6.000000
  0.222222  0.222222  0.000000      6.000000
  0.333333  0.222222  0.000000     12.000000
  0.333333  0.333333  0.000000      2.000000
 
 Following cartesian coordinates:
            Coordinates               Weight
  0.000000  0.000000  0.000000      1.000000
  0.157135  0.090722  0.000000      6.000000
  0.314270  0.181444  0.000000      6.000000
  0.471405  0.272166  0.000000      6.000000
  0.628539  0.362887  0.000000      6.000000
  0.157135  0.272166  0.000000      6.000000
  0.314270  0.362887  0.000000     12.000000
  0.471405  0.453609  0.000000     12.000000
  0.628539  0.544331  0.000000      6.000000
  0.314270  0.544331  0.000000      6.000000
  0.471405  0.635053  0.000000     12.000000
  0.471405  0.816497  0.000000      2.000000
 
 
 Subroutine IBZKPT_HF returns following result:
 ==============================================
 
 Found     81 k-points in 1st BZ
 the following     81 k-points will be used (e.g. in the exchange kernel)
 Following reciprocal coordinates:   # in IRBZ
  0.000000  0.000000  0.000000    0.01234568   1 t-inv F
  0.111111  0.000000  0.000000    0.01234568   2 t-inv F
  0.222222  0.000000  0.000000    0.01234568   3 t-inv F
  0.333333  0.000000  0.000000    0.01234568   4 t-inv F
  0.444444  0.000000  0.000000    0.01234568   5 t-inv F
  0.111111  0.111111  0.000000    0.01234568   6 t-inv F
  0.222222  0.111111  0.000000    0.01234568   7 t-inv F
  0.333333  0.111111  0.000000    0.01234568   8 t-inv F
  0.444444  0.111111  0.000000    0.01234568   9 t-inv F
  0.222222  0.222222  0.000000    0.01234568  10 t-inv F
  0.333333  0.222222  0.000000    0.01234568  11 t-inv F
  0.333333  0.333333  0.000000    0.01234568  12 t-inv F
 -0.111111  0.111111  0.000000    0.01234568   2 t-inv F
  0.000000 -0.111111  0.000000    0.01234568   2 t-inv F
 -0.222222  0.222222  0.000000    0.01234568   3 t-inv F
  0.000000 -0.222222  0.000000    0.01234568   3 t-inv F
 -0.333333  0.333333  0.000000    0.01234568   4 t-inv F
  0.000000 -0.333333  0.000000    0.01234568   4 t-inv F
 -0.444444  0.444444  0.000000    0.01234568   5 t-inv F
  0.000000 -0.444444  0.000000    0.01234568   5 t-inv F
 -0.222222  0.111111  0.000000    0.01234568   6 t-inv F
  0.111111 -0.222222  0.000000    0.01234568   6 t-inv F
 -0.111111  0.222222  0.000000    0.01234568   6 t-inv F
  0.222222 -0.111111  0.000000    0.01234568   6 t-inv F
 -0.111111 -0.111111  0.000000    0.01234568   6 t-inv F
 -0.333333  0.222222  0.000000    0.01234568   7 t-inv F
  0.111111 -0.333333  0.000000    0.01234568   7 t-inv F
 -0.222222  0.333333  0.000000    0.01234568   7 t-inv F
  0.333333 -0.111111  0.000000    0.01234568   7 t-inv F
 -0.111111 -0.222222  0.000000    0.01234568   7 t-inv F
 -0.444444  0.333333  0.000000    0.01234568   8 t-inv F
  0.111111 -0.444444  0.000000    0.01234568   8 t-inv F
 -0.333333  0.444444  0.000000    0.01234568   8 t-inv F
  0.444444 -0.111111  0.000000    0.01234568   8 t-inv F
 -0.111111 -0.333333  0.000000    0.01234568   8 t-inv F
 -0.555556  0.444444  0.000000    0.01234568   9 t-inv F
  0.111111 -0.555556  0.000000    0.01234568   9 t-inv F
 -0.444444  0.555556  0.000000    0.01234568   9 t-inv F
  0.555556 -0.111111  0.000000    0.01234568   9 t-inv F
 -0.111111 -0.444444  0.000000    0.01234568   9 t-inv F
 -0.444444  0.222222  0.000000    0.01234568  10 t-inv F
  0.222222 -0.444444  0.000000    0.01234568  10 t-inv F
 -0.222222  0.444444  0.000000    0.01234568  10 t-inv F
  0.444444 -0.222222  0.000000    0.01234568  10 t-inv F
 -0.222222 -0.222222  0.000000    0.01234568  10 t-inv F
 -0.555556  0.333333  0.000000    0.01234568  11 t-inv F
  0.222222 -0.555556  0.000000    0.01234568  11 t-inv F
 -0.333333  0.555556  0.000000    0.01234568  11 t-inv F
  0.555556 -0.222222  0.000000    0.01234568  11 t-inv F
 -0.222222 -0.333333  0.000000    0.01234568  11 t-inv F
 -0.333333  0.666667  0.000000    0.01234568  12 t-inv F
 -0.111111 -0.000000 -0.000000    0.01234568   2 t-inv T
  0.111111 -0.111111 -0.000000    0.01234568   2 t-inv T
 -0.000000  0.111111 -0.000000    0.01234568   2 t-inv T
 -0.222222 -0.000000 -0.000000    0.01234568   3 t-inv T
  0.222222 -0.222222 -0.000000    0.01234568   3 t-inv T
 -0.000000  0.222222 -0.000000    0.01234568   3 t-inv T
 -0.333333 -0.000000 -0.000000    0.01234568   4 t-inv T
  0.333333 -0.333333 -0.000000    0.01234568   4 t-inv T
 -0.000000  0.333333 -0.000000    0.01234568   4 t-inv T
 -0.444444 -0.000000 -0.000000    0.01234568   5 t-inv T
  0.444444 -0.444444 -0.000000    0.01234568   5 t-inv T
 -0.000000  0.444444 -0.000000    0.01234568   5 t-inv T
 -0.222222 -0.111111 -0.000000    0.01234568   7 t-inv T
  0.333333 -0.222222 -0.000000    0.01234568   7 t-inv T
 -0.111111  0.333333 -0.000000    0.01234568   7 t-inv T
  0.222222 -0.333333 -0.000000    0.01234568   7 t-inv T
 -0.333333  0.111111 -0.000000    0.01234568   7 t-inv T
  0.111111  0.222222 -0.000000    0.01234568   7 t-inv T
 -0.333333 -0.111111 -0.000000    0.01234568   8 t-inv T
  0.444444 -0.333333 -0.000000    0.01234568   8 t-inv T
 -0.111111  0.444444 -0.000000    0.01234568   8 t-inv T
  0.333333 -0.444444 -0.000000    0.01234568   8 t-inv T
 -0.444444  0.111111 -0.000000    0.01234568   8 t-inv T
  0.111111  0.333333 -0.000000    0.01234568   8 t-inv T
 -0.333333 -0.222222 -0.000000    0.01234568  11 t-inv T
  0.555556 -0.333333 -0.000000    0.01234568  11 t-inv T
 -0.222222  0.555556 -0.000000    0.01234568  11 t-inv T
  0.333333 -0.555556 -0.000000    0.01234568  11 t-inv T
 -0.555556  0.222222 -0.000000    0.01234568  11 t-inv T
  0.222222  0.333333 -0.000000    0.01234568  11 t-inv T


--------------------------------------------------------------------------------------------------------




 Dimension of arrays:
   k-points           NKPTS =     12   k-points in BZ     NKDIM =     12   number of bands    NBANDS=     64
   number of dos      NEDOS =    301   number of ions     NIONS =      7
   non local maximal  LDIM  =      6   non local SUM 2l+1 LMDIM =     18
   total plane-waves  NPLWV =  12960
   max r-space proj   IRMAX =      1   max aug-charges    IRDMAX=   4444
   dimension x,y,z NGX =    12 NGY =   12 NGZ =   90
   dimension x,y,z NGXF=    24 NGYF=   24 NGZF=  180
   support grid    NGXF=    24 NGYF=   24 NGZF=  180
   ions per type =               5   1   1
   NGX,Y,Z   is equivalent  to a cutoff of   7.99,  7.99,  8.16 a.u.
   NGXF,Y,Z  is equivalent  to a cutoff of  15.98, 15.98, 16.31 a.u.

 SYSTEM =  CO on Ni111 - frequencies               
 POSCAR =  Ni - (111) + CO on-top                  

 Startparameter for this run:
   NWRITE =      2    write-flag & timer
   PREC   = normal    normal or accurate (medium, high low for compatibility)
   ISTART =      0    job   : 0-new  1-cont  2-samecut
   ICHARG =      2    charge: 1-file 2-atom 10-const
   ISPIN  =      1    spin polarized calculation?
   LNONCOLLINEAR =      F non collinear calculations
   LSORBIT =      F    spin-orbit coupling
   INIWAV =      1    electr: 0-lowe 1-rand  2-diag
   LASPH  =      F    aspherical Exc in radial PAW
 Electronic Relaxation 1
   ENCUT  =  400.0 eV  29.40 Ry    5.42 a.u.   4.07  4.07 29.91*2*pi/ulx,y,z
   ENINI  =  400.0     initial cutoff
   ENAUG  =  644.9 eV  augmentation charge cutoff
   NELM   =     60;   NELMIN=  2; NELMDL= -5     # of ELM steps 
   EDIFF  = 0.1E-05   stopping-criterion for ELM
   LREAL  =      F    real-space projection
   NLSPLINE    = F    spline interpolate recip. space projectors
   LCOMPAT=      F    compatible to vasp.4.4
   GGA_COMPAT  = T    GGA compatible to vasp.4.4-vasp.4.6
   LMAXPAW     = -100 max onsite density
   LMAXMIX     =    2 max onsite mixed and CHGCAR
   VOSKOWN=      0    Vosko Wilk Nusair interpolation
   ROPT   =    0.00000   0.00000   0.00000
 Ionic relaxation
   EDIFFG = 0.1E-04   stopping-criterion for IOM
   NSW    =    121    number of steps for IOM
   NBLOCK =      1;   KBLOCK =    121    inner block; outer block 
   IBRION =      5    ionic relax: 0-MD 1-quasi-New 2-CG
   NFREE  =      2    steps in history (QN), initial steepest desc. (CG)
   ISIF   =      2    stress and relaxation
   IWAVPR =     11    prediction:  0-non 1-charg 2-wave 3-comb
   ISYM   =      2    0-nonsym 1-usesym 2-fastsym
   LCORR  =      T    Harris-Foulkes like correction to forces

   POTIM  = 0.5000    time-step for ionic-motion
   TEIN   =    0.0    initial temperature
   TEBEG  =    0.0;   TEEND  =   0.0 temperature during run
   SMASS  =  -3.00    Nose mass-parameter (am)
   estimated Nose-frequenzy (Omega)   =  0.10E-29 period in steps = 0.13E+47 mass=  -0.142E-27a.u.
   SCALEE = 1.0000    scale energy and forces
   NPACO  =    256;   APACO  = 10.0  distance and # of slots for P.C.
   PSTRESS=    0.0 pullay stress

  Mass of Ions in am
   POMASS =  58.69 12.01 16.00
  Ionic Valenz
   ZVAL   =  10.00  4.00  6.00
  Atomic Wigner-Seitz radii
   RWIGS  =  -1.00 -1.00 -1.00
  virtual crystal weights 
   VCA    =   1.00  1.00  1.00
   NELECT =      60.0000    total number of electrons
   NUPDOWN=      -1.0000    fix difference up-down

 DOS related values:
   EMIN   =  10.00;   EMAX   =-10.00  energy-range for DOS
   EFERMI =   0.00;   METHOD = LEGACY      
   ISMEAR =     2;   SIGMA  =   0.20  broadening in eV -4-tet -1-fermi 0-gaus

 Electronic relaxation 2 (details)
   IALGO  =     68    algorithm
   LDIAG  =      T    sub-space diagonalisation (order eigenvalues)
   LSUBROT=      F    optimize rotation matrix (better conditioning)
   TURBO    =      0    0=normal 1=particle mesh
   IRESTART =      0    0=no restart 2=restart with 2 vectors
   NREBOOT  =      0    no. of reboots
   NMIN     =      0    reboot dimension
   EREF     =   0.00    reference energy to select bands
   IMIX   =      4    mixing-type and parameters
     AMIX     =   0.40;   BMIX     =  1.00
     AMIX_MAG =   1.60;   BMIX_MAG =  1.00
     AMIN     =   0.10
     WC   =   100.;   INIMIX=   1;  MIXPRE=   1;  MAXMIX= -45

 Intra band minimization:
   WEIMIN = 0.0010     energy-eigenvalue tresh-hold
   EBREAK =  0.39E-08  absolut break condition
   DEPER  =   0.30     relativ break condition  

   TIME   =   0.40     timestep for ELM

  volume/ion in A,a.u.               =      14.14        95.41
  Fermi-wavevector in a.u.,A,eV,Ry     =   1.385553  2.618315 26.119870  1.919756
  Thomas-Fermi vector in A             =   2.509952

 Write flags
   LWAVE        =      T    write WAVECAR
   LDOWNSAMPLE  =      F    k-point downsampling of WAVECAR
   LCHARG       =      T    write CHGCAR
   LVTOT        =      F    write LOCPOT, total local potential
   LVHAR        =      F    write LOCPOT, Hartree potential only
   LELF         =      F    write electronic localiz. function (ELF)
   LORBIT       =      0    0 simple, 1 ext, 2 COOP (PROOUT), +10 PAW based schemes


 Dipole corrections
   LMONO  =      F    monopole corrections only (constant potential shift)
   LDIPOL =      F    correct potential (dipole corrections)
   IDIPOL =      0    1-x, 2-y, 3-z, 4-all directions 
   EPSILON=  1.0000000 bulk dielectric constant

 Exchange correlation treatment:
   GGA     =    --    GGA type
   LEXCH   =     8    internal setting for exchange type
   LIBXC   =     F    Libxc                    
   VOSKOWN =     0    Vosko Wilk Nusair interpolation
   LHFCALC =     F    Hartree Fock is set to
   LHFONE  =     F    Hartree Fock one center treatment
   AEXX    =    0.0000 exact exchange contribution

 Linear response parameters
   LEPSILON=     F    determine dielectric tensor
   LRPA    =     F    only Hartree local field effects (RPA)
   LNABLA  =     F    use nabla operator in PAW spheres
   LVEL    =     F    velocity operator in full k-point grid
   CSHIFT  =0.1000    complex shift for real part using Kramers Kronig
   OMEGAMAX=  -1.0    maximum frequency
   DEG_THRESHOLD= 0.2000000E-02 threshold for treating states as degnerate
   RTIME   =   -0.100 relaxation time in fs
  (WPLASMAI=    0.000 imaginary part of plasma frequency in eV, 0.658/RTIME)
   DFIELD  = 0.0000000 0.0000000 0.0000000 field for delta impulse in time

  Optional k-point grid parameters
   LKPOINTS_OPT  =     F    use optional k-point grid
   KPOINTS_OPT_MODE=     1    mode for optional k-point grid

 Orbital magnetization related:
   ORBITALMAG=     F  switch on orbital magnetization
   LCHIMAG   =     F  perturbation theory with respect to B field
   DQ        =  0.001000  dq finite difference perturbation B field
   LLRAUG    =     F  two centre corrections for induced B field
   LBONE     =     F  B-component reconstruction in AE one-centre
   LVGVCALC  =     T  calculate vGv susceptibility
   LVGVAPPL  =     F  apply vGv susceptibility instead of pGv for G=0

 Random number generation:
   RANDOM_GENERATOR = DEFAULT
   PCG_SEED         = not used


--------------------------------------------------------------------------------------------------------


 finite differences
   using selective dynamics as specified on POSCAR
 charge density and potential will be updated during run
 non-spin polarized calculation
 RMM-DIIS sequential band-by-band and
  variant of blocked Davidson during initial phase
 perform sub-space diagonalisation
    before iterative eigenvector-optimisation
 modified Broyden-mixing scheme, WC =      100.0
 initial mixing is a Kerker type mixing with AMIX =  0.4000 and BMIX =      1.0000
 Hartree-type preconditioning will be used
 using additional bands           34
 reciprocal scheme for non local part
 use partial core corrections
 calculate Harris-corrections to forces   (improved forces if not selfconsistent)
 use gradient corrections 
 use of overlap-Matrix (Vanderbilt PP)
 Methfessel and Paxton  Order N= 2 SIGMA  =   0.20


--------------------------------------------------------------------------------------------------------


  energy-cutoff  :      400.00
  volume of cell :       98.97
      direct lattice vectors                 reciprocal lattice vectors
     2.496086933  0.000000000  0.000000000     0.400627072  0.231302161 -0.000000000
    -1.248043467  2.161674572  0.000000000     0.000000000  0.462604322  0.000000000
     0.000000000  0.000000000 18.342417972     0.000000000 -0.000000000  0.054518439

  length of vectors
     2.496086933  2.496086827 18.342417972     0.462604302  0.462604322  0.054518439



 k-points in units of 2pi/SCALE and weight: k-points                                
   0.00000000  0.00000000  0.00000000       0.012
   0.15713484  0.09072185  0.00000000       0.074
   0.31426968  0.18144370  0.00000000       0.074
   0.47140452  0.27216554  0.00000000       0.074
   0.62853936  0.36288739  0.00000000       0.074
   0.15713484  0.27216554  0.00000000       0.074
   0.31426968  0.36288739  0.00000000       0.148
   0.47140452  0.45360924  0.00000000       0.148
   0.62853936  0.54433109  0.00000000       0.074
   0.31426968  0.54433109  0.00000000       0.074
   0.47140452  0.63505293  0.00000000       0.148
   0.47140452  0.81649663  0.00000000       0.025

 k-points in reciprocal lattice and weights: k-points                                
   0.00000000  0.00000000  0.00000000       0.012
   0.11111111  0.00000000  0.00000000       0.074
   0.22222222  0.00000000  0.00000000       0.074
   0.33333333  0.00000000  0.00000000       0.074
   0.44444444  0.00000000  0.00000000       0.074
   0.11111111  0.11111111  0.00000000       0.074
   0.22222222  0.11111111  0.00000000       0.148
   0.33333333  0.11111111  0.00000000       0.148
   0.44444444  0.11111111  0.00000000       0.074
   0.22222222  0.22222222  0.00000000       0.074
   0.33333333  0.22222222  0.00000000       0.148
   0.33333333  0.33333333  0.00000000       0.025

 position of ions in fractional coordinates (direct lattice) 
   0.00000000  0.00000000  0.00233033
   0.33333333  0.66666667  0.11146857
   0.66666667  0.33333333  0.22180897
   0.00000000  0.00000000  0.33216955
   0.33333333  0.66666667  0.44408498
   0.33333333  0.66666667  0.53962304
   0.33333333  0.66666667  0.60266203

 position of ions in cartesian coordinates  (Angst):
   0.00000000  0.00000000  0.04274391
  -0.00000001  1.44111639  2.04460319
   1.24804348  0.72055818  4.06851290
   0.00000000  0.00000000  6.09279278
  -0.00000001  1.44111639  8.14559233
  -0.00000001  1.44111639  9.89799140
  -0.00000001  1.44111639 11.05427887



--------------------------------------------------------------------------------------------------------


 k-point   1 :   0.0000 0.0000 0.0000  plane waves:    1733
 k-point   2 :   0.1111 0.0000 0.0000  plane waves:    1735
 k-point   3 :   0.2222 0.0000 0.0000  plane waves:    1789
 k-point   4 :   0.3333 0.0000 0.0000  plane waves:    1791
 k-point   5 :   0.4444 0.0000 0.0000  plane waves:    1803
 k-point   6 :   0.1111 0.1111 0.0000  plane waves:    1778
 k-point   7 :   0.2222 0.1111 0.0000  plane waves:    1801
 k-point   8 :   0.3333 0.1111 0.0000  plane waves:    1813
 k-point   9 :   0.4444 0.1111 0.0000  plane waves:    1824
 k-point  10 :   0.2222 0.2222 0.0000  plane waves:    1794
 k-point  11 :   0.3333 0.2222 0.0000  plane waves:    1809
 k-point  12 :   0.3333 0.3333 0.0000  plane waves:    1800

 maximum and minimum number of plane-waves per node :      1824     1733

 maximum number of plane-waves:      1824
 maximum index in each direction: 
   IXMAX=    4   IYMAX=    4   IZMAX=   29
   IXMIN=   -4   IYMIN=   -4   IZMIN=  -29


 serial   3D FFT for wavefunctions
 parallel 3D FFT for charge:
    minimum data exchange during FFTs selected (reduces bandwidth)


 total amount of memory used by VASP MPI-rank0    41312. kBytes
=======================================================================

   base      :      30000. kBytes
   nonl-proj :       9829. kBytes
   fftplans  :        196. kBytes
   grid      :        799. kBytes
   one-center:        108. kBytes
   wavefun   :        380. kBytes

     INWAV:  cpu time      0.0001: real time      0.0007
 Broyden mixing: mesh for mixing (old mesh)
   NGX =  9   NGY =  9   NGZ = 59
  (NGX  = 24   NGY  = 24   NGZ  =180)
  gives a total of   4779 points

 initial charge density was supplied:
 charge density of overlapping atoms calculated
 number of electron      60.0000000 magnetization 
 keeping initial charge density in first step


--------------------------------------------------------------------------------------------------------


 Maximum index for augmentation-charges          285 (set IRDMAX)


--------------------------------------------------------------------------------------------------------


 First call to EWALD:  gamma=   0.383
 Maximum number of real-space cells 5x 5x 1
 Maximum number of reciprocal cells 2x 2x 9

    FEWALD:  cpu time      0.0031: real time      0.0031


--------------------------------------- Ionic step        1  -------------------------------------------




--------------------------------------- Iteration      1(   1)  ---------------------------------------


    POTLOK:  cpu time      0.0998: real time      0.1029
    SETDIJ:  cpu time      0.0074: real time      0.0074
     EDDAV:  cpu time      2.8911: real time      2.9356
       DOS:  cpu time      0.0231: real time      0.0232
    --------------------------------------------
      LOOP:  cpu time      3.0214: real time      3.0692

 eigenvalue-minimisations  :  1536
 total energy-change (2. order) : 0.6100832E+02  (-0.2884949E+04)
 number of electron      60.0000000 magnetization 
 augmentation part       60.0000000 magnetization 

 Free energy of the ion-electron system (eV)
  ---------------------------------------------------
  alpha Z        PSCENC =       181.07952222
  Ewald energy   TEWEN  =      4654.50440598
  -Hartree energ DENC   =    -10801.06069167
  -exchange      EXHF   =         0.00000000
  -V(xc)+E(xc)   XCENC  =       198.58404571
  PAW double counting   =      5269.79849292    -5606.41650974
  entropy T*S    EENTRO =         0.00603164
  eigenvalues    EBANDS =       196.80342217
  atomic energy  EATOM  =      5967.70960555
  Solvation  Ediel_sol  =         0.00000000
  ---------------------------------------------------
  free energy    TOTEN  =        61.00832478 eV

  energy without entropy =       61.00229314  energy(sigma->0) =       61.00681687


--------------------------------------------------------------------------------------------------------




--------------------------------------- Iteration      1(   2)  ---------------------------------------


     EDDAV:  cpu time      3.4030: real time      3.5074
       DOS:  cpu time      0.0236: real time      0.0238
    --------------------------------------------
      LOOP:  cpu time      3.4266: real time      3.5313

 eigenvalue-minimisations  :  1728
 total energy-change (2. order) :-0.1068663E+03  (-0.1064272E+03)
 number of electron      60.0000000 magnetization 
 augmentation part       60.0000000 magnetization 

 Free energy of the ion-electron system (eV)
  ---------------------------------------------------
  alpha Z        PSCENC =       181.07952222
  Ewald energy   TEWEN  =      4654.50440598
  -Hartree energ DENC   =    -10801.06069167
  -exchange      EXHF   =         0.00000000
  -V(xc)+E(xc)   XCENC  =       198.58404571
  PAW double counting   =      5269.79849292    -5606.41650974
  entropy T*S    EENTRO =        -0.03204445
  eigenvalues    EBANDS =        89.97523942
  atomic energy  EATOM  =      5967.70960555
  Solvation  Ediel_sol  =         0.00000000
  ---------------------------------------------------
  free energy    TOTEN  =       -45.85793407 eV

  energy without entropy =      -45.82588962  energy(sigma->0) =      -45.84992296


--------------------------------------------------------------------------------------------------------




--------------------------------------- Iteration      1(   3)  ---------------------------------------


     EDDAV:  cpu time      4.8156: real time      4.8864
       DOS:  cpu time      0.0222: real time      0.0224
    --------------------------------------------
      LOOP:  cpu time      4.8378: real time      4.9089

 eigenvalue-minimisations  :  2240
 total energy-change (2. order) :-0.1731709E+01  (-0.1730334E+01)
 number of electron      60.0000000 magnetization 
 augmentation part       60.0000000 magnetization 

 Free energy of the ion-electron system (eV)
  ---------------------------------------------------
  alpha Z        PSCENC =       181.07952222
  Ewald energy   TEWEN  =      4654.50440598
  -Hartree energ DENC   =    -10801.06069167
  -exchange      EXHF   =         0.00000000
  -V(xc)+E(xc)   XCENC  =       198.58404571
  PAW double counting   =      5269.79849292    -5606.41650974
  entropy T*S    EENTRO =        -0.03176219
  eigenvalues    EBANDS =        88.24324790
  atomic energy  EATOM  =      5967.70960555
  Solvation  Ediel_sol  =         0.00000000
  ---------------------------------------------------
  free energy    TOTEN  =       -47.58964334 eV

  energy without entropy =      -47.55788114  energy(sigma->0) =      -47.58170279


--------------------------------------------------------------------------------------------------------




--------------------------------------- Iteration      1(   4)  ---------------------------------------


     EDDAV:  cpu time      4.7267: real time      4.7875
       DOS:  cpu time      0.0215: real time      0.0218
    --------------------------------------------
      LOOP:  cpu time      4.7482: real time      4.8093

 eigenvalue-minimisations  :  2176
 total energy-change (2. order) :-0.3385424E-02  (-0.3385305E-02)
 number of electron      60.0000000 magnetization 
 augmentation part       60.0000000 magnetization 

 Free energy of the ion-electron system (eV)
  ---------------------------------------------------
  alpha Z        PSCENC =       181.07952222
  Ewald energy   TEWEN  =      4654.50440598
  -Hartree energ DENC   =    -10801.06069167
  -exchange      EXHF   =         0.00000000
  -V(xc)+E(xc)   XCENC  =       198.58404571
  PAW double counting   =      5269.79849292    -5606.41650974
  entropy T*S    EENTRO =        -0.03175441
  eigenvalues    EBANDS =        88.23985468
  atomic energy  EATOM  =      5967.70960555
  Solvation  Ediel_sol  =         0.00000000
  ---------------------------------------------------
  free energy    TOTEN  =       -47.59302876 eV

  energy without entropy =      -47.56127436  energy(sigma->0) =      -47.58509016


--------------------------------------------------------------------------------------------------------




--------------------------------------- Iteration      1(   5)  ---------------------------------------


     EDDAV:  cpu time      5.4911: real time      5.5932
       DOS:  cpu time      0.0231: real time      0.0232
    CHARGE:  cpu time      0.0370: real time      0.0374
    MIXING:  cpu time      0.0062: real time      0.0071
    --------------------------------------------
      LOOP:  cpu time      5.5574: real time      5.6610

 eigenvalue-minimisations  :  2432
 total energy-change (2. order) :-0.2407686E-05  (-0.2407601E-05)
 number of electron      59.9999616 magnetization 
 augmentation part       28.4028511 magnetization 

 Broyden mixing:
  rms(total) = 0.25702E+01    rms(broyden)= 0.25698E+01
  rms(prec ) = 0.27860E+01
  weight for this iteration     100.00

 Free energy of the ion-electron system (eV)
  ---------------------------------------------------
  alpha Z        PSCENC =       181.07952222
  Ewald energy   TEWEN  =      4654.50440598
  -Hartree energ DENC   =    -10801.06069167
  -exchange      EXHF   =         0.00000000
  -V(xc)+E(xc)   XCENC  =       198.58404571
  PAW double counting   =      5269.79849292    -5606.41650974
  entropy T*S    EENTRO =        -0.03175441
  eigenvalues    EBANDS =        88.23985228
  atomic energy  EATOM  =      5967.70960555
  Solvation  Ediel_sol  =         0.00000000
  ---------------------------------------------------
  free energy    TOTEN  =       -47.59303117 eV

  energy without entropy =      -47.56127675  energy(sigma->0) =      -47.58509257


--------------------------------------------------------------------------------------------------------




--------------------------------------- Iteration      1(   6)  ---------------------------------------


    POTLOK:  cpu time      0.0971: real time      0.0981
    SETDIJ:  cpu time      0.0074: real time      0.0074
    EDDIAG:  cpu time      2.2829: real time      2.3238
  RMM-DIIS:  cpu time      0.0218: real time      0.0219
    ORTHCH:  cpu time      0.2372: real time      0.2393
       DOS:  cpu time      0.0215: real time      0.0216
    CHARGE:  cpu time      0.0370: real time      0.0374
    MIXING:  cpu time      0.0090: real time      0.0116
    --------------------------------------------
      LOOP:  cpu time      2.7138: real time      2.7613

 eigenvalue-minimisations  :  1536
 total energy-change (2. order) :-0.6022127E+01  (-0.3380245E+01)
 number of electron      59.9999463 magnetization 
 augmentation part       35.4303012 magnetization 

 Broyden mixing:
  rms(total) = 0.34985E+01    rms(broyden)= 0.34975E+01
  rms(prec ) = 0.43937E+01
  weight for this iteration     100.00

 eigenvalues of (default mixing * dielectric matrix)
  average eigenvalue GAMMA=   0.3929
  0.3929

 Free energy of the ion-electron system (eV)
  ---------------------------------------------------
  alpha Z        PSCENC =       181.07952222
  Ewald energy   TEWEN  =      4654.50440598
  -Hartree energ DENC   =    -10656.73796514
  -exchange      EXHF   =         0.00000000
  -V(xc)+E(xc)   XCENC  =       192.74048033
  PAW double counting   =      5715.40923651    -6025.23423620
  entropy T*S    EENTRO =         0.02497854
  eigenvalues    EBANDS =       -83.11118604
  atomic energy  EATOM  =      5967.70960555
  Solvation  Ediel_sol  =         0.00000000
  ---------------------------------------------------
  free energy    TOTEN  =       -53.61515827 eV

  energy without entropy =      -53.64013680  energy(sigma->0) =      -53.62140290


--------------------------------------------------------------------------------------------------------




--------------------------------------- Iteration      1(   7)  ---------------------------------------


    POTLOK:  cpu time      0.0994: real time      0.1002
    SETDIJ:  cpu time      0.0076: real time      0.0077
    EDDIAG:  cpu time      2.3041: real time      2.3259
  RMM-DIIS:  cpu time      0.0226: real time      0.0227
    ORTHCH:  cpu time      0.2394: real time      0.2412
       DOS:  cpu time      0.0250: real time      0.0252
    CHARGE:  cpu time      0.0370: real time      0.0374
    MIXING:  cpu time      0.0107: real time      0.0107
    --------------------------------------------
      LOOP:  cpu time      2.7458: real time      2.7709

 eigenvalue-minimisations  :  1536
 total energy-change (2. order) : 0.6281543E+01  (-0.6901119E+00)
 number of electron      59.9999542 magnetization 
 augmentation part       30.4996869 magnetization 

 Broyden mixing:
  rms(total) = 0.30829E+01    rms(broyden)= 0.30817E+01
  rms(prec ) = 0.49654E+01
  weight for this iteration     100.00

 eigenvalues of (default mixing * dielectric matrix)
  average eigenvalue GAMMA=   0.2680
  0.4185  0.1174

 Free energy of the ion-electron system (eV)
  ---------------------------------------------------
  alpha Z        PSCENC =       181.07952222
  Ewald energy   TEWEN  =      4654.50440598
  -Hartree energ DENC   =    -10744.58800488
  -exchange      EXHF   =         0.00000000
  -V(xc)+E(xc)   XCENC  =       194.54031517
  PAW double counting   =      5926.60565841    -6256.31840783
  entropy T*S    EENTRO =        -0.02036354
  eigenvalues    EBANDS =        29.15365318
  atomic energy  EATOM  =      5967.70960555
  Solvation  Ediel_sol  =         0.00000000
  ---------------------------------------------------
  free energy    TOTEN  =       -47.33361573 eV

  energy without entropy =      -47.31325219  energy(sigma->0) =      -47.32852484


--------------------------------------------------------------------------------------------------------




--------------------------------------- Iteration      1(   8)  ---------------------------------------


    POTLOK:  cpu time      0.1058: real time      0.1069
    SETDIJ:  cpu time      0.0075: real time      0.0076
    EDDIAG:  cpu time      2.3486: real time      2.3645
  RMM-DIIS:  cpu time      0.0219: real time      0.0220
    ORTHCH:  cpu time      0.2391: real time      0.2408
       DOS:  cpu time      0.0245: real time      0.0247
    CHARGE:  cpu time      0.0378: real time      0.0382
    MIXING:  cpu time      0.0111: real time      0.0111
    --------------------------------------------
      LOOP:  cpu time      2.7962: real time      2.8160

 eigenvalue-minimisations  :  1540
 total energy-change (2. order) : 0.1448655E+01  (-0.1198461E+00)
 number of electron      59.9999548 magnetization 
 augmentation part       31.1346085 magnetization 

 Broyden mixing:
  rms(total) = 0.28848E+01    rms(broyden)= 0.28843E+01
  rms(prec ) = 0.40754E+01
  weight for this iteration     100.00

 eigenvalues of (default mixing * dielectric matrix)
  average eigenvalue GAMMA=   0.3378
  0.6508  0.2955  0.0671

 Free energy of the ion-electron system (eV)
  ---------------------------------------------------
  alpha Z        PSCENC =       181.07952222
  Ewald energy   TEWEN  =      4654.50440598
  -Hartree energ DENC   =    -10742.96410147
  -exchange      EXHF   =         0.00000000
  -V(xc)+E(xc)   XCENC  =       194.56678039
  PAW double counting   =      5971.22898197    -6302.30961918
  entropy T*S    EENTRO =        -0.00830409
  eigenvalues    EBANDS =        30.30776793
  atomic energy  EATOM  =      5967.70960555
  Solvation  Ediel_sol  =         0.00000000
  ---------------------------------------------------
  free energy    TOTEN  =       -45.88496070 eV

  energy without entropy =      -45.87665662  energy(sigma->0) =      -45.88288468


--------------------------------------------------------------------------------------------------------




--------------------------------------- Iteration      1(   9)  ---------------------------------------


    POTLOK:  cpu time      0.1002: real time      0.1011
    SETDIJ:  cpu time      0.0077: real time      0.0078
    EDDIAG:  cpu time      2.3234: real time      2.3455
  RMM-DIIS:  cpu time      0.0213: real time      0.0214
    ORTHCH:  cpu time      0.2406: real time      0.2426
       DOS:  cpu time      0.0229: real time      0.0230
    CHARGE:  cpu time      0.0374: real time      0.0377
    MIXING:  cpu time      0.0115: real time      0.0116
    --------------------------------------------
      LOOP:  cpu time      2.7650: real time      2.7907

 eigenvalue-minimisations  :  1536
 total energy-change (2. order) :-0.2285742E+01  (-0.2489030E+00)
 number of electron      59.9999544 magnetization 
 augmentation part       31.1781969 magnetization 

 Broyden mixing:
  rms(total) = 0.31027E+01    rms(broyden)= 0.31023E+01
  rms(prec ) = 0.39424E+01
  weight for this iteration     100.00

 eigenvalues of (default mixing * dielectric matrix)
  average eigenvalue GAMMA=   0.4178
  1.1836  0.3098  0.1017  0.0762

 Free energy of the ion-electron system (eV)
  ---------------------------------------------------
  alpha Z        PSCENC =       181.07952222
  Ewald energy   TEWEN  =      4654.50440598
  -Hartree energ DENC   =    -10718.47539484
  -exchange      EXHF   =         0.00000000
  -V(xc)+E(xc)   XCENC  =       194.61400692
  PAW double counting   =      6074.57068838    -6408.25877768
  entropy T*S    EENTRO =         0.00645748
  eigenvalues    EBANDS =         6.07878331
  atomic energy  EATOM  =      5967.70960555
  Solvation  Ediel_sol  =         0.00000000
  ---------------------------------------------------
  free energy    TOTEN  =       -48.17070267 eV

  energy without entropy =      -48.17716016  energy(sigma->0) =      -48.17231704


--------------------------------------------------------------------------------------------------------




--------------------------------------- Iteration      1(  10)  ---------------------------------------


    POTLOK:  cpu time      0.1006: real time      0.1016
    SETDIJ:  cpu time      0.0079: real time      0.0079
    EDDIAG:  cpu time      2.3773: real time      2.3951
  RMM-DIIS:  cpu time      0.0213: real time      0.0214
    ORTHCH:  cpu time      0.2381: real time      0.2447
       DOS:  cpu time      0.0240: real time      0.0242
    CHARGE:  cpu time      0.0374: real time      0.0381
    MIXING:  cpu time      0.0121: real time      0.0122
    --------------------------------------------
      LOOP:  cpu time      2.8187: real time      2.8452

 eigenvalue-minimisations  :  1536
 total energy-change (2. order) :-0.1659864E+01  (-0.2053790E+00)
 number of electron      59.9999566 magnetization 
 augmentation part       30.8200984 magnetization 

 Broyden mixing:
  rms(total) = 0.34188E+01    rms(broyden)= 0.34185E+01
  rms(prec ) = 0.42633E+01
  weight for this iteration     100.00

 eigenvalues of (default mixing * dielectric matrix)
  average eigenvalue GAMMA=   0.4518
  1.6093  0.3433  0.1220  0.1220  0.0621

 Free energy of the ion-electron system (eV)
  ---------------------------------------------------
  alpha Z        PSCENC =       181.07952222
  Ewald energy   TEWEN  =      4654.50440598
  -Hartree energ DENC   =    -10739.02642470
  -exchange      EXHF   =         0.00000000
  -V(xc)+E(xc)   XCENC  =       194.72392752
  PAW double counting   =      6249.88844231    -6589.20799345
  entropy T*S    EENTRO =        -0.00291153
  eigenvalues    EBANDS =        30.50085953
  atomic energy  EATOM  =      5967.70960555
  Solvation  Ediel_sol  =         0.00000000
  ---------------------------------------------------
  free energy    TOTEN  =       -49.83056657 eV

  energy without entropy =      -49.82765504  energy(sigma->0) =      -49.82983868


--------------------------------------------------------------------------------------------------------




--------------------------------------- Iteration      1(  11)  ---------------------------------------


    POTLOK:  cpu time      0.0977: real time      0.1083
    SETDIJ:  cpu time      0.0075: real time      0.0076
    EDDIAG:  cpu time      2.3203: real time      2.3359
  RMM-DIIS:  cpu time      0.0214: real time      0.0215
    ORTHCH:  cpu time      0.2389: real time      0.2426
       DOS:  cpu time      0.0238: real time      0.0242
    CHARGE:  cpu time      0.0375: real time      0.0378
    MIXING:  cpu time      0.0124: real time      0.0125
    --------------------------------------------
      LOOP:  cpu time      2.7596: real time      2.7903

 eigenvalue-minimisations  :  1536
 total energy-change (2. order) : 0.5652646E+01  (-0.1412656E+00)
 number of electron      59.9999557 magnetization 
 augmentation part       31.8283829 magnetization 

 Broyden mixing:
  rms(total) = 0.22828E+01    rms(broyden)= 0.22825E+01
  rms(prec ) = 0.32548E+01
  weight for this iteration     100.00

 eigenvalues of (default mixing * dielectric matrix)
  average eigenvalue GAMMA=   0.4011
  1.6308  0.3467  0.1490  0.1490  0.0656  0.0656

 Free energy of the ion-electron system (eV)
  ---------------------------------------------------
  alpha Z        PSCENC =       181.07952222
  Ewald energy   TEWEN  =      4654.50440598
  -Hartree energ DENC   =    -10719.84955187
  -exchange      EXHF   =         0.00000000
  -V(xc)+E(xc)   XCENC  =       194.61222226
  PAW double counting   =      6338.87486451    -6679.93264471
  entropy T*S    EENTRO =        -0.01407652
  eigenvalues    EBANDS =        18.83773240
  atomic energy  EATOM  =      5967.70960555
  Solvation  Ediel_sol  =         0.00000000
  ---------------------------------------------------
  free energy    TOTEN  =       -44.17792018 eV

  energy without entropy =      -44.16384366  energy(sigma->0) =      -44.17440105


--------------------------------------------------------------------------------------------------------




--------------------------------------- Iteration      1(  12)  ---------------------------------------


    POTLOK:  cpu time      0.1020: real time      0.1029
    SETDIJ:  cpu time      0.0076: real time      0.0077
    EDDIAG:  cpu time      2.3495: real time      2.3698
  RMM-DIIS:  cpu time      0.0225: real time      0.0226
    ORTHCH:  cpu time      0.2397: real time      0.2412
       DOS:  cpu time      0.0239: real time      0.0240
    CHARGE:  cpu time      0.0368: real time      0.0372
    MIXING:  cpu time      0.0129: real time      0.0130
    --------------------------------------------
      LOOP:  cpu time      2.7949: real time      2.8184

 eigenvalue-minimisations  :  1536
 total energy-change (2. order) : 0.1901328E+01  (-0.9990951E-01)
 number of electron      59.9999537 magnetization 
 augmentation part       31.6426996 magnetization 

 Broyden mixing:
  rms(total) = 0.16391E+01    rms(broyden)= 0.16386E+01
  rms(prec ) = 0.20838E+01
  weight for this iteration     100.00

 eigenvalues of (default mixing * dielectric matrix)
  average eigenvalue GAMMA=   0.4240
  1.5992  0.6743  0.2512  0.1483  0.1483  0.0733  0.0733

 Free energy of the ion-electron system (eV)
  ---------------------------------------------------
  alpha Z        PSCENC =       181.07952222
  Ewald energy   TEWEN  =      4654.50440598
  -Hartree energ DENC   =    -10719.57947234
  -exchange      EXHF   =         0.00000000
  -V(xc)+E(xc)   XCENC  =       194.69891754
  PAW double counting   =      6396.19992647    -6738.77158014
  entropy T*S    EENTRO =        -0.02078170
  eigenvalues    EBANDS =        21.90286425
  atomic energy  EATOM  =      5967.70960555
  Solvation  Ediel_sol  =         0.00000000
  ---------------------------------------------------
  free energy    TOTEN  =       -42.27659218 eV

  energy without entropy =      -42.25581048  energy(sigma->0) =      -42.27139675


--------------------------------------------------------------------------------------------------------




--------------------------------------- Iteration      1(  13)  ---------------------------------------


    POTLOK:  cpu time      0.1010: real time      0.1021
    SETDIJ:  cpu time      0.0077: real time      0.0077
    EDDIAG:  cpu time      2.3276: real time      2.3422
  RMM-DIIS:  cpu time      0.0213: real time      0.0215
    ORTHCH:  cpu time      0.2383: real time      0.2407
       DOS:  cpu time      0.0237: real time      0.0239
    CHARGE:  cpu time      0.0371: real time      0.0377
    MIXING:  cpu time      0.0137: real time      0.0138
    --------------------------------------------
      LOOP:  cpu time      2.7705: real time      2.7897

 eigenvalue-minimisations  :  1536
 total energy-change (2. order) : 0.1128938E+01  (-0.2337433E-01)
 number of electron      59.9999549 magnetization 
 augmentation part       31.6273184 magnetization 

 Broyden mixing:
  rms(total) = 0.64489E+00    rms(broyden)= 0.64451E+00
  rms(prec ) = 0.75562E+00
  weight for this iteration     100.00

 eigenvalues of (default mixing * dielectric matrix)
  average eigenvalue GAMMA=   0.4192
  1.5843  0.5142  0.5142  0.2992  0.1487  0.1487  0.0723  0.0723

 Free energy of the ion-electron system (eV)
  ---------------------------------------------------
  alpha Z        PSCENC =       181.07952222
  Ewald energy   TEWEN  =      4654.50440598
  -Hartree energ DENC   =    -10726.49204545
  -exchange      EXHF   =         0.00000000
  -V(xc)+E(xc)   XCENC  =       194.79123351
  PAW double counting   =      6503.15336065    -6848.01510129
  entropy T*S    EENTRO =        -0.01817237
  eigenvalues    EBANDS =        32.13953705
  atomic energy  EATOM  =      5967.70960555
  Solvation  Ediel_sol  =         0.00000000
  ---------------------------------------------------
  free energy    TOTEN  =       -41.14765414 eV

  energy without entropy =      -41.12948178  energy(sigma->0) =      -41.14311105


--------------------------------------------------------------------------------------------------------




--------------------------------------- Iteration      1(  14)  ---------------------------------------


    POTLOK:  cpu time      0.1003: real time      0.1012
    SETDIJ:  cpu time      0.0076: real time      0.0076
    EDDIAG:  cpu time      2.3178: real time      2.3367
  RMM-DIIS:  cpu time      0.0215: real time      0.0217
    ORTHCH:  cpu time      0.2387: real time      0.2404
       DOS:  cpu time      0.0253: real time      0.0254
    CHARGE:  cpu time      0.0366: real time      0.0370
    MIXING:  cpu time      0.0145: real time      0.0146
    --------------------------------------------
      LOOP:  cpu time      2.7623: real time      2.7847

 eigenvalue-minimisations  :  1539
 total energy-change (2. order) : 0.2863180E+00  (-0.4705980E-02)
 number of electron      59.9999555 magnetization 
 augmentation part       31.6732347 magnetization 

 Broyden mixing:
  rms(total) = 0.25282E+00    rms(broyden)= 0.25264E+00
  rms(prec ) = 0.32626E+00
  weight for this iteration     100.00

 eigenvalues of (default mixing * dielectric matrix)
  average eigenvalue GAMMA=   0.4559
  1.2981  0.7843  0.7843  0.5196  0.2709  0.1506  0.1506  0.0724  0.0724

 Free energy of the ion-electron system (eV)
  ---------------------------------------------------
  alpha Z        PSCENC =       181.07952222
  Ewald energy   TEWEN  =      4654.50440598
  -Hartree energ DENC   =    -10728.01482859
  -exchange      EXHF   =         0.00000000
  -V(xc)+E(xc)   XCENC  =       194.68533445
  PAW double counting   =      6530.27493112    -6875.26883177
  entropy T*S    EENTRO =        -0.02759211
  eigenvalues    EBANDS =        34.19611698
  atomic energy  EATOM  =      5967.70960555
  Solvation  Ediel_sol  =         0.00000000
  ---------------------------------------------------
  free energy    TOTEN  =       -40.86133617 eV

  energy without entropy =      -40.83374407  energy(sigma->0) =      -40.85443815


--------------------------------------------------------------------------------------------------------




--------------------------------------- Iteration      1(  15)  ---------------------------------------


    POTLOK:  cpu time      0.1021: real time      0.1028
    SETDIJ:  cpu time      0.0077: real time      0.0078
    EDDIAG:  cpu time      2.3187: real time      2.3366
  RMM-DIIS:  cpu time      0.0216: real time      0.0217
    ORTHCH:  cpu time      0.2393: real time      0.2412
       DOS:  cpu time      0.0251: real time      0.0252
    CHARGE:  cpu time      0.0386: real time      0.0390
    MIXING:  cpu time      0.0151: real time      0.0186
    --------------------------------------------
      LOOP:  cpu time      2.7683: real time      2.7930

 eigenvalue-minimisations  :  1537
 total energy-change (2. order) : 0.3316649E-01  (-0.1479185E-02)
 number of electron      59.9999553 magnetization 
 augmentation part       31.5663816 magnetization 

 Broyden mixing:
  rms(total) = 0.30212E+00    rms(broyden)= 0.30208E+00
  rms(prec ) = 0.39676E+00
  weight for this iteration     100.00

 eigenvalues of (default mixing * dielectric matrix)
  average eigenvalue GAMMA=   0.5987
  1.4585  1.4585  1.3159  0.5180  0.5180  0.2736  0.1501  0.1501  0.0724  0.0724

 Free energy of the ion-electron system (eV)
  ---------------------------------------------------
  alpha Z        PSCENC =       181.07952222
  Ewald energy   TEWEN  =      4654.50440598
  -Hartree energ DENC   =    -10732.40963743
  -exchange      EXHF   =         0.00000000
  -V(xc)+E(xc)   XCENC  =       194.75124881
  PAW double counting   =      6536.37446284    -6881.11162997
  entropy T*S    EENTRO =        -0.02670712
  eigenvalues    EBANDS =        38.30055943
  atomic energy  EATOM  =      5967.70960555
  Solvation  Ediel_sol  =         0.00000000
  ---------------------------------------------------
  free energy    TOTEN  =       -40.82816969 eV

  energy without entropy =      -40.80146257  energy(sigma->0) =      -40.82149291


--------------------------------------------------------------------------------------------------------




--------------------------------------- Iteration      1(  16)  ---------------------------------------


    POTLOK:  cpu time      0.1895: real time      0.1907
    SETDIJ:  cpu time      0.0079: real time      0.0079
    EDDIAG:  cpu time      2.3138: real time      2.3368
  RMM-DIIS:  cpu time      0.0213: real time      0.0214
    ORTHCH:  cpu time      0.2391: real time      0.2410
       DOS:  cpu time      0.0252: real time      0.0253
    CHARGE:  cpu time      0.0369: real time      0.0374
    MIXING:  cpu time      0.0157: real time      0.0157
    --------------------------------------------
      LOOP:  cpu time      2.8492: real time      2.8762

 eigenvalue-minimisations  :  1536
 total energy-change (2. order) : 0.2926475E-01  (-0.1686584E-02)
 number of electron      59.9999555 magnetization 
 augmentation part       31.4963518 magnetization 

 Broyden mixing:
  rms(total) = 0.24471E+00    rms(broyden)= 0.24451E+00
  rms(prec ) = 0.29924E+00
  weight for this iteration     100.00

 eigenvalues of (default mixing * dielectric matrix)
  average eigenvalue GAMMA=   0.6191
  1.7004  1.7004  1.1685  0.5678  0.4771  0.4771  0.2740  0.1501  0.1501  0.0724
  0.0724

 Free energy of the ion-electron system (eV)
  ---------------------------------------------------
  alpha Z        PSCENC =       181.07952222
  Ewald energy   TEWEN  =      4654.50440598
  -Hartree energ DENC   =    -10737.52250519
  -exchange      EXHF   =         0.00000000
  -V(xc)+E(xc)   XCENC  =       194.75202601
  PAW double counting   =      6596.24755118    -6940.87542046
  entropy T*S    EENTRO =        -0.02154823
  eigenvalues    EBANDS =        43.32745802
  atomic energy  EATOM  =      5967.70960555
  Solvation  Ediel_sol  =         0.00000000
  ---------------------------------------------------
  free energy    TOTEN  =       -40.79890494 eV

  energy without entropy =      -40.77735670  energy(sigma->0) =      -40.79351788


--------------------------------------------------------------------------------------------------------




--------------------------------------- Iteration      1(  17)  ---------------------------------------


    POTLOK:  cpu time      0.1013: real time      0.1023
    SETDIJ:  cpu time      0.0078: real time      0.0078
    EDDIAG:  cpu time      2.3335: real time      2.3539
  RMM-DIIS:  cpu time      0.0213: real time      0.0214
    ORTHCH:  cpu time      0.2397: real time      0.2412
       DOS:  cpu time      0.0249: real time      0.0251
    CHARGE:  cpu time      0.0373: real time      0.0378
    MIXING:  cpu time      0.0162: real time      0.0163
    --------------------------------------------
      LOOP:  cpu time      2.7820: real time      2.8058

 eigenvalue-minimisations  :  1539
 total energy-change (2. order) : 0.2234723E-01  (-0.5255327E-03)
 number of electron      59.9999555 magnetization 
 augmentation part       31.4867799 magnetization 

 Broyden mixing:
  rms(total) = 0.10516E+00    rms(broyden)= 0.10512E+00
  rms(prec ) = 0.15211E+00
  weight for this iteration     100.00

 eigenvalues of (default mixing * dielectric matrix)
  average eigenvalue GAMMA=   0.6631
  2.0332  1.3733  1.3733  0.7389  0.7389  0.4902  0.4902  0.2736  0.1501  0.1501
  0.0724  0.0724

 Free energy of the ion-electron system (eV)
  ---------------------------------------------------
  alpha Z        PSCENC =       181.07952222
  Ewald energy   TEWEN  =      4654.50440598
  -Hartree energ DENC   =    -10739.27111376
  -exchange      EXHF   =         0.00000000
  -V(xc)+E(xc)   XCENC  =       194.75725929
  PAW double counting   =      6628.32438383    -6973.13073069
  entropy T*S    EENTRO =        -0.01781530
  eigenvalues    EBANDS =        45.26792518
  atomic energy  EATOM  =      5967.70960555
  Solvation  Ediel_sol  =         0.00000000
  ---------------------------------------------------
  free energy    TOTEN  =       -40.77655770 eV

  energy without entropy =      -40.75874241  energy(sigma->0) =      -40.77210388


--------------------------------------------------------------------------------------------------------




--------------------------------------- Iteration      1(  18)  ---------------------------------------


    POTLOK:  cpu time      0.1001: real time      0.1008
    SETDIJ:  cpu time      0.0080: real time      0.0080
    EDDIAG:  cpu time      2.3256: real time      2.3473
  RMM-DIIS:  cpu time      0.0216: real time      0.0217
    ORTHCH:  cpu time      0.2403: real time      0.2424
       DOS:  cpu time      0.0241: real time      0.0243
    CHARGE:  cpu time      0.0372: real time      0.0375
    MIXING:  cpu time      0.0170: real time      0.0171
    --------------------------------------------
      LOOP:  cpu time      2.7738: real time      2.7991

 eigenvalue-minimisations  :  1544
 total energy-change (2. order) : 0.3496144E-02  (-0.1059507E-03)
 number of electron      59.9999556 magnetization 
 augmentation part       31.5145276 magnetization 

 Broyden mixing:
  rms(total) = 0.94401E-01    rms(broyden)= 0.94394E-01
  rms(prec ) = 0.11635E+00
  weight for this iteration     100.00

 eigenvalues of (default mixing * dielectric matrix)
  average eigenvalue GAMMA=   0.6931
  2.2499  1.3255  1.3255  0.9090  0.9090  0.6049  0.4840  0.4840  0.2737  0.1501
  0.1501  0.0724  0.0724

 Free energy of the ion-electron system (eV)
  ---------------------------------------------------
  alpha Z        PSCENC =       181.07952222
  Ewald energy   TEWEN  =      4654.50440598
  -Hartree energ DENC   =    -10739.21343298
  -exchange      EXHF   =         0.00000000
  -V(xc)+E(xc)   XCENC  =       194.74591707
  PAW double counting   =      6642.33951030    -6987.30396498
  entropy T*S    EENTRO =        -0.01881798
  eigenvalues    EBANDS =        45.38419325
  atomic energy  EATOM  =      5967.70960555
  Solvation  Ediel_sol  =         0.00000000
  ---------------------------------------------------
  free energy    TOTEN  =       -40.77306156 eV

  energy without entropy =      -40.75424358  energy(sigma->0) =      -40.76835706


--------------------------------------------------------------------------------------------------------




--------------------------------------- Iteration      1(  19)  ---------------------------------------


    POTLOK:  cpu time      0.1035: real time      0.1044
    SETDIJ:  cpu time      0.0095: real time      0.0095
    EDDIAG:  cpu time      2.3397: real time      2.3547
  RMM-DIIS:  cpu time      0.0213: real time      0.0215
    ORTHCH:  cpu time      0.2387: real time      0.2411
       DOS:  cpu time      0.0241: real time      0.0242
    CHARGE:  cpu time      0.0371: real time      0.0375
    MIXING:  cpu time      0.0169: real time      0.0170
    --------------------------------------------
      LOOP:  cpu time      2.7909: real time      2.8099

 eigenvalue-minimisations  :  1537
 total energy-change (2. order) : 0.2883141E-02  (-0.7468405E-04)
 number of electron      59.9999554 magnetization 
 augmentation part       31.5239510 magnetization 

 Broyden mixing:
  rms(total) = 0.59070E-01    rms(broyden)= 0.59049E-01
  rms(prec ) = 0.90691E-01
  weight for this iteration     100.00

 eigenvalues of (default mixing * dielectric matrix)
  average eigenvalue GAMMA=   0.7267
  2.1897  1.7753  1.2977  1.2977  0.7270  0.7270  0.4785  0.4785  0.4843  0.2737
  0.1501  0.1501  0.0724  0.0724

 Free energy of the ion-electron system (eV)
  ---------------------------------------------------
  alpha Z        PSCENC =       181.07952222
  Ewald energy   TEWEN  =      4654.50440598
  -Hartree energ DENC   =    -10739.37587443
  -exchange      EXHF   =         0.00000000
  -V(xc)+E(xc)   XCENC  =       194.75319580
  PAW double counting   =      6649.82599286    -6994.88632614
  entropy T*S    EENTRO =        -0.01877269
  eigenvalues    EBANDS =        45.63807244
  atomic energy  EATOM  =      5967.70960555
  Solvation  Ediel_sol  =         0.00000000
  ---------------------------------------------------
  free energy    TOTEN  =       -40.77017842 eV

  energy without entropy =      -40.75140573  energy(sigma->0) =      -40.76548525


--------------------------------------------------------------------------------------------------------




--------------------------------------- Iteration      1(  20)  ---------------------------------------


    POTLOK:  cpu time      0.1007: real time      0.1017
    SETDIJ:  cpu time      0.0078: real time      0.0079
    EDDIAG:  cpu time      2.3254: real time      2.3396
  RMM-DIIS:  cpu time      0.0215: real time      0.0216
    ORTHCH:  cpu time      0.2390: real time      0.2414
       DOS:  cpu time      0.0246: real time      0.0249
    CHARGE:  cpu time      0.0372: real time      0.0376
    MIXING:  cpu time      0.0176: real time      0.0177
    --------------------------------------------
      LOOP:  cpu time      2.7737: real time      2.7924

 eigenvalue-minimisations  :  1543
 total energy-change (2. order) : 0.7511521E-03  (-0.2293736E-04)
 number of electron      59.9999555 magnetization 
 augmentation part       31.5248476 magnetization 

 Broyden mixing:
  rms(total) = 0.14070E-01    rms(broyden)= 0.14049E-01
  rms(prec ) = 0.19769E-01
  weight for this iteration     100.00

 eigenvalues of (default mixing * dielectric matrix)
  average eigenvalue GAMMA=   0.8004
  2.3094  2.3094  1.4369  1.4369  1.0034  0.6802  0.6802  0.4798  0.4798  0.4713
  0.2737  0.1501  0.1501  0.0724  0.0724

 Free energy of the ion-electron system (eV)
  ---------------------------------------------------
  alpha Z        PSCENC =       181.07952222
  Ewald energy   TEWEN  =      4654.50440598
  -Hartree energ DENC   =    -10739.67522607
  -exchange      EXHF   =         0.00000000
  -V(xc)+E(xc)   XCENC  =       194.75663731
  PAW double counting   =      6651.02993384    -6996.10573138
  entropy T*S    EENTRO =        -0.01953548
  eigenvalues    EBANDS =        45.95096075
  atomic energy  EATOM  =      5967.70960555
  Solvation  Ediel_sol  =         0.00000000
  ---------------------------------------------------
  free energy    TOTEN  =       -40.76942727 eV

  energy without entropy =      -40.74989179  energy(sigma->0) =      -40.76454340


--------------------------------------------------------------------------------------------------------




--------------------------------------- Iteration      1(  21)  ---------------------------------------


    POTLOK:  cpu time      0.1026: real time      0.1033
    SETDIJ:  cpu time      0.0077: real time      0.0077
    EDDIAG:  cpu time      2.3556: real time      2.3902
  RMM-DIIS:  cpu time      0.0218: real time      0.0219
    ORTHCH:  cpu time      0.2406: real time      0.2423
       DOS:  cpu time      0.0234: real time      0.0236
    CHARGE:  cpu time      0.0375: real time      0.0380
    MIXING:  cpu time      0.0185: real time      0.0187
    --------------------------------------------
      LOOP:  cpu time      2.8077: real time      2.8457

 eigenvalue-minimisations  :  1547
 total energy-change (2. order) : 0.5076358E-04  (-0.7391676E-05)
 number of electron      59.9999555 magnetization 
 augmentation part       31.5301631 magnetization 

 Broyden mixing:
  rms(total) = 0.11603E-01    rms(broyden)= 0.11591E-01
  rms(prec ) = 0.17810E-01
  weight for this iteration     100.00

 eigenvalues of (default mixing * dielectric matrix)
  average eigenvalue GAMMA=   0.8099
  2.2701  2.2701  1.4688  1.4688  0.9580  0.9580  0.7587  0.6227  0.4796  0.4796
  0.5051  0.2737  0.1501  0.1501  0.0724  0.0724

 Free energy of the ion-electron system (eV)
  ---------------------------------------------------
  alpha Z        PSCENC =       181.07952222
  Ewald energy   TEWEN  =      4654.50440598
  -Hartree energ DENC   =    -10740.09788479
  -exchange      EXHF   =         0.00000000
  -V(xc)+E(xc)   XCENC  =       194.75549108
  PAW double counting   =      6651.27288947    -6996.35419461
  entropy T*S    EENTRO =        -0.02026190
  eigenvalues    EBANDS =        46.38105049
  atomic energy  EATOM  =      5967.70960555
  Solvation  Ediel_sol  =         0.00000000
  ---------------------------------------------------
  free energy    TOTEN  =       -40.76937650 eV

  energy without entropy =      -40.74911461  energy(sigma->0) =      -40.76431103


--------------------------------------------------------------------------------------------------------




--------------------------------------- Iteration      1(  22)  ---------------------------------------


    POTLOK:  cpu time      0.1000: real time      0.1009
    SETDIJ:  cpu time      0.0079: real time      0.0079
    EDDIAG:  cpu time      2.3014: real time      2.3342
[...]
     61      24.0464      0.00000
     62      24.7531      0.00000
     63      24.9457      0.00000
     64      26.1971      0.00000


--------------------------------------------------------------------------------------------------------


 soft charge-density along one line, spin component           1
         0         1         2         3         4         5         6         7         8         9
 total charge-density along one line

 pseudopotential strength for first ion, spin component:           1
 -3.673  -0.000   0.000   0.013   0.000  -4.222  -0.000   0.000
 -0.000  -3.526   0.000  -0.000   0.013  -0.000  -4.082   0.000
  0.000   0.000  -3.504   0.000  -0.000   0.000   0.000  -4.062
  0.013  -0.000   0.000  -3.526  -0.000   0.013  -0.000   0.000
  0.000   0.013  -0.000  -0.000  -3.673   0.000   0.013  -0.000
 -4.222  -0.000   0.000   0.013   0.000  -4.705  -0.000   0.000
 -0.000  -4.082   0.000  -0.000   0.013  -0.000  -4.572   0.000
  0.000   0.000  -4.062   0.000  -0.000   0.000   0.000  -4.552
  0.013  -0.000   0.000  -4.082  -0.000   0.012  -0.000   0.000
  0.000   0.013  -0.000  -0.000  -4.222   0.000   0.012  -0.000
  0.000   0.000  -0.023  -0.000  -0.000   0.000   0.000  -0.022
  0.000   0.000  -0.039  -0.000  -0.000   0.000   0.000  -0.038
  0.000  -0.008  -0.000   0.000  -0.000   0.000  -0.008  -0.000
  0.000  -0.000  -0.006   0.000  -0.000   0.000  -0.000  -0.005
 -0.000   0.000  -0.000  -0.008   0.000  -0.000   0.000  -0.000
  0.000  -0.008  -0.000   0.000  -0.000   0.000  -0.007  -0.000
  0.000  -0.000  -0.005   0.000  -0.000   0.000  -0.000  -0.004
 -0.000   0.000  -0.000  -0.008   0.000  -0.000   0.000  -0.000
 total augmentation occupancy for first ion, spin component:           1
  2.400   0.000   0.000   0.234   0.000  -0.889   0.000  -0.000  -0.105   0.000   0.000   0.000   0.000  -0.000   0.022   0.000
  0.000   2.842  -0.000  -0.000   0.234  -0.000  -0.975   0.000   0.000  -0.111   0.000   0.000  -0.192   0.000   0.000   0.012
  0.000  -0.000   2.825   0.000  -0.000  -0.000   0.000  -1.094  -0.000   0.000   0.373  -0.008  -0.000  -0.127   0.000   0.000
  0.234  -0.000   0.000   2.842  -0.000  -0.111   0.000  -0.000  -0.975   0.000  -0.000   0.000   0.000   0.000  -0.192   0.000
 -0.000   0.234  -0.000  -0.000   2.400   0.000  -0.105   0.000   0.000  -0.889  -0.000   0.000   0.022   0.000  -0.000  -0.002
 -0.889   0.000  -0.000  -0.111   0.000   1.085   0.000   0.000   0.021  -0.000   0.000   0.000  -0.000   0.000  -0.030   0.000
 -0.000  -0.975   0.000   0.000  -0.105   0.000   0.920  -0.000  -0.000   0.021   0.000  -0.000   0.194  -0.000   0.000  -0.024
 -0.000   0.000  -1.094  -0.000   0.000   0.000  -0.000   1.132  -0.000  -0.000  -0.416   0.036   0.000   0.220   0.000  -0.000
 -0.105   0.000  -0.000  -0.975   0.000   0.021  -0.000   0.000   0.920  -0.000  -0.000   0.000  -0.000  -0.000   0.194   0.000
  0.000  -0.111   0.000   0.000  -0.889  -0.000   0.021  -0.000   0.000   1.085   0.000  -0.000  -0.030  -0.000   0.000   0.003
  0.000  -0.000   0.373   0.000  -0.000  -0.000   0.000  -0.416   0.000   0.000   2.089  -0.254  -0.000   0.211  -0.000   0.000
  0.000   0.000  -0.008  -0.000   0.000  -0.000   0.000   0.036   0.000  -0.000  -0.254   0.038   0.000  -0.040   0.000   0.000
 -0.000  -0.192  -0.000   0.000   0.022   0.000   0.194   0.000  -0.000  -0.030  -0.000   0.000   0.260  -0.000  -0.000  -0.026
  0.000   0.000  -0.127   0.000   0.000   0.000   0.000   0.220  -0.000  -0.000   0.211  -0.040   0.000   0.158  -0.000   0.000
  0.022   0.000   0.000  -0.192  -0.000  -0.030   0.000  -0.000   0.194   0.000  -0.000   0.000  -0.000  -0.000   0.260   0.000
 -0.000   0.012   0.000  -0.000  -0.002   0.000  -0.024  -0.000   0.000   0.003   0.000   0.000  -0.026   0.000   0.000   0.003
  0.000   0.000  -0.002  -0.000   0.000   0.000   0.000  -0.019   0.000   0.000  -0.039   0.006   0.000  -0.018  -0.000   0.000
 -0.002  -0.000  -0.000   0.012   0.000   0.003   0.000   0.000  -0.024  -0.000   0.000  -0.000   0.000   0.000  -0.026   0.000


------------------------ aborting loop because EDIFF is reached ----------------------------------------


    CHARGE:  cpu time      0.0373: real time      0.0379
    FORLOC:  cpu time      0.0006: real time      0.0006
    FORNL :  cpu time      0.0322: real time      0.0324
    STRESS:  cpu time      0.2553: real time      0.2568
    FORCOR:  cpu time      0.0790: real time      0.0796
    FORHAR:  cpu time      0.0232: real time      0.0234
    MIXING:  cpu time      0.0153: real time      0.0154
    OFIELD:  cpu time      0.0000: real time      0.0000

  FORCE on cell =-STRESS in cart. coord.  units (eV):
  Direction    XX          YY          ZZ          XY          YZ          ZX
  --------------------------------------------------------------------------------------
  Alpha Z   181.07952   181.07952   181.07952
  Ewald    7997.10530  7997.10539-11314.82368    -0.00000     0.00002     0.00000
  Hartree  9891.53968  9891.53969 -9017.53341    -0.00000     0.00001     0.00000
  E(xc)    -319.74078  -319.74055  -319.06668     0.00020     0.00003     0.00002
  Local  -19166.47455-19166.47778 19098.71128    -0.00276    -0.00027    -0.00015
  n-local   -64.39234   -63.16759   -69.70973   -15.60523    -0.15908     1.86787
  augment   888.68220   888.68560   881.18106     0.00300     0.00007     0.00009
  Kinetic   598.11896   590.58728   561.11830    10.29440     0.34016     0.77613
  Fock        0.00000     0.00000     0.00000     0.00000     0.00000     0.00000
  -------------------------------------------------------------------------------------
  Total       2.76477     2.76477     0.95665     0.00000     0.00000     0.00000
  in kB      44.75727    44.75726    15.48666     0.00000     0.00000     0.00000
  external pressure =       35.00 kB  Pullay stress =        0.00 kB


 VOLUME and BASIS-vectors are now :
 -----------------------------------------------------------------------------
  energy-cutoff  :      400.00
  volume of cell :       98.97
      direct lattice vectors                 reciprocal lattice vectors
     2.496086933  0.000000000  0.000000000     0.400627072  0.231302161 -0.000000000
    -1.248043467  2.161674572  0.000000000     0.000000000  0.462604322  0.000000000
     0.000000000  0.000000000 18.342417972     0.000000000 -0.000000000  0.054518439

  length of vectors
     2.496086933  2.496086827 18.342417972     0.462604302  0.462604322  0.054518439


 FORCES acting on ions
    electron-ion (+dipol)            ewald-force                    non-local-force                 convergence-correction
 -----------------------------------------------------------------------------------------------
   0.280E-05 0.357E-05 0.275E+04   -.259E-06 -.232E-05 -.275E+04   -.502E-18 0.484E-18 -.169E+01   0.739E-08 -.759E-08 0.941E-01
   -.667E-05 -.103E-04 0.161E+04   0.748E-06 -.288E-06 -.161E+04   0.188E-17 -.460E-17 -.166E+00   -.406E-09 -.251E-07 0.121E+00
   0.526E-05 0.759E-05 0.476E+03   -.734E-06 0.424E-06 -.476E+03   0.127E-17 -.809E-18 0.872E-02   -.693E-08 0.330E-08 -.305E-01
   0.873E-05 0.158E-04 -.655E+03   0.175E-07 0.128E-06 0.656E+03   -.758E-18 0.244E-18 -.266E+00   -.135E-08 0.912E-07 -.226E+00
   -.230E-03 -.401E-03 -.172E+04   0.226E-06 0.205E-05 0.172E+04   0.694E-17 -.108E-17 0.375E+01   -.135E-08 0.540E-06 -.113E+00
   -.630E-03 -.110E-02 -.818E+03   0.576E-09 0.900E-08 0.799E+03   0.137E-17 0.342E-19 0.169E+02   -.214E-08 -.310E-05 0.181E-01
   0.498E-03 0.824E-03 -.160E+04   0.301E-10 0.633E-09 0.167E+04   0.317E-18 0.747E-19 -.636E+02   -.427E-08 -.182E-04 0.367E-01
 -----------------------------------------------------------------------------------------------
   -.353E-03 -.665E-03 0.452E+02   0.117E-13 0.119E-12 -.909E-12   0.105E-16 -.565E-17 -.451E+02   -.906E-08 -.207E-04 -.987E-01


 POSITION                                       TOTAL-FORCE (eV/Angst)
 -----------------------------------------------------------------------------------
      0.00000      0.00000      0.04274         0.000000     -0.000000      0.007901
     -0.00000      1.44112      2.04460         0.000000     -0.000000      0.004877
      1.24804      0.72056      4.06851         0.000000     -0.000000     -0.000862
      0.00000      0.00000      6.09279         0.000000     -0.000000      0.003878
     -0.00000      1.44112      8.14559         0.000000      0.000000     -0.029117
     -0.00000      1.44112      9.89799        -0.000000     -0.000000     -1.707735
     -0.00000      1.44112     11.03928        -0.000000      0.000000      1.721058
 -----------------------------------------------------------------------------------
    total drift:                               -0.000353     -0.000686      0.011717


--------------------------------------------------------------------------------------------------------



  FREE ENERGIE OF THE ION-ELECTRON SYSTEM (eV)
  ---------------------------------------------------
  free  energy   TOTEN  =       -40.75691117 eV

  energy  without entropy=      -40.73678299  energy(sigma->0) =      -40.75187912

 d Force =-0.2267729E-02[-0.516E-01, 0.471E-01]  d Energy =-0.6254115E-03-0.164E-02
 d Force =-0.4956540E+02[-0.500E+02,-0.492E+02]  d Ewald  =-0.4956303E+02-0.237E-02


--------------------------------------------------------------------------------------------------------


    POTLOK:  cpu time      0.1092: real time      0.1099


--------------------------------------------------------------------------------------------------------


 stress matrix after NEB project (eV)
      2.76477      0.00000      0.00000
      0.00000      2.76477     -0.00000
      0.00000      0.00000      0.95665
  FORCES: max atom, RMS     1.721058    0.916390
  FORCE total and by dimension    2.424541    1.721058
  Stress total and by dimension    4.025311    2.764774
 Finite differences progress:
  Degree of freedom:   6/  6
  Displacement:        2/  2
  Total:              12/ 12

 SECOND DERIVATIVES (NOT SYMMETRIZED)
 ------------------------------------
               6X          6Y          6Z          7X          7Y          7Z 
  6X    -5.967778    0.001235    0.030154    4.730234   -0.001706   -0.008360
  6Y    -0.000000   -5.969801    0.009509    0.000000    4.736459   -0.002891
  6Z     0.000000   -0.000000 -124.912310   -0.000000    0.000000  108.105371
  7X     4.737021   -0.001723   -0.032811   -3.849203    0.000737    0.035150
  7Y    -0.000000    4.745681   -0.002349   -0.000000   -3.780018   -0.001702
  7Z    -0.000000    0.000000  108.091525    0.000000   -0.000000 -109.697791


 Eigenvectors and eigenvalues of the dynamical matrix
 ----------------------------------------------------


   1 f  =   63.741907 THz   400.502215 2PiTHz 2126.201162 cm-1   263.615228 meV
             X         Y         Z           dx          dy          dz
      0.000000  0.000000  0.042744            0           0           0  
     -0.000000  1.441116  2.044603            0           0           0  
      1.248043  0.720558  4.068513            0           0           0  
      0.000000  0.000000  6.092793            0           0           0  
     -0.000000  1.441116  8.145592            0           0           0  
     -0.000000  1.441116  9.897991     0.000075    0.000023   -0.781530  
     -0.000000  1.441116 11.054279    -0.000100   -0.000003    0.623868  

   2 f  =   13.388598 THz    84.123043 2PiTHz  446.595562 cm-1    55.370768 meV
             X         Y         Z           dx          dy          dz
      0.000000  0.000000  0.042744            0           0           0  
     -0.000000  1.441116  2.044603            0           0           0  
      1.248043  0.720558  4.068513            0           0           0  
      0.000000  0.000000  6.092793            0           0           0  
     -0.000000  1.441116  8.145592            0           0           0  
     -0.000000  1.441116  9.897991    -0.815624    0.102272    0.002082  
     -0.000000  1.441116 11.054279     0.565083   -0.070475    0.002792  

   3 f  =   13.381233 THz    84.076765 2PiTHz  446.349881 cm-1    55.340307 meV
             X         Y         Z           dx          dy          dz
      0.000000  0.000000  0.042744            0           0           0  
     -0.000000  1.441116  2.044603            0           0           0  
      1.248043  0.720558  4.068513            0           0           0  
      0.000000  0.000000  6.092793            0           0           0  
     -0.000000  1.441116  8.145592            0           0           0  
     -0.000000  1.441116  9.897991    -0.102095   -0.817103    0.001426  
     -0.000000  1.441116 11.054279     0.070718    0.562950    0.001842  

   4 f  =   12.422665 THz    78.053908 2PiTHz  414.375513 cm-1    51.375993 meV
             X         Y         Z           dx          dy          dz
      0.000000  0.000000  0.042744            0           0           0  
     -0.000000  1.441116  2.044603            0           0           0  
      1.248043  0.720558  4.068513            0           0           0  
      0.000000  0.000000  6.092793            0           0           0  
     -0.000000  1.441116  8.145592            0           0           0  
     -0.000000  1.441116  9.897991    -0.002704   -0.001533   -0.623863  
     -0.000000  1.441116 11.054279     0.002669    0.001087   -0.781523  

   5 f  =    0.988872 THz     6.213265 2PiTHz   32.985215 cm-1     4.089644 meV
             X         Y         Z           dx          dy          dz
      0.000000  0.000000  0.042744            0           0           0  
     -0.000000  1.441116  2.044603            0           0           0  
      1.248043  0.720558  4.068513            0           0           0  
      0.000000  0.000000  6.092793            0           0           0  
     -0.000000  1.441116  8.145592            0           0           0  
     -0.000000  1.441116  9.897991     0.569480    0.004298    0.000377  
     -0.000000  1.441116 11.054279     0.821970    0.006260    0.000536  

   6 f  =    0.391237 THz     2.458216 2PiTHz   13.050268 cm-1     1.618026 meV
             X         Y         Z           dx          dy          dz
      0.000000  0.000000  0.042744            0           0           0  
     -0.000000  1.441116  2.044603            0           0           0  
      1.248043  0.720558  4.068513            0           0           0  
      0.000000  0.000000  6.092793            0           0           0  
     -0.000000  1.441116  8.145592            0           0           0  
     -0.000000  1.441116  9.897991    -0.004334    0.567329    0.000022  
     -0.000000  1.441116 11.054279    -0.006236    0.823457    0.000009  

 Finite differences POTIM=   1.4999999999999999E-002
  LATTYP: Found a hexagonal cell.
 ALAT       =     2.4960869334
 C/A-ratio  =     7.3484692086
  
  Lattice vectors:
  
 A1 = (   2.4960869334,   0.0000000000,   0.0000000000)
 A2 = (  -1.2480434667,   2.1616745720,   0.0000000000)
 A3 = (   0.0000000000,   0.0000000000,  18.3424179720)


Analysis of symmetry for initial positions (statically):
=====================================================================
 Subroutine PRICEL returns:
 Original cell was already a primitive cell.
 

 Routine SETGRP: Setting up the symmetry group for a 
 hexagonal supercell.


 Subroutine GETGRP returns: Found  6 space group operations
 (whereof  6 operations were pure point group operations)
 out of a pool of 24 trial point group operations.


The static configuration has the point symmetry C_3v.


Analysis of symmetry for dynamics (positions and initial velocities):
=====================================================================
 Subroutine PRICEL returns:
 Original cell was already a primitive cell.
 

 Routine SETGRP: Setting up the symmetry group for a 
 hexagonal supercell.


 Subroutine GETGRP returns: Found  6 space group operations
 (whereof  6 operations were pure point group operations)
 out of a pool of 24 trial point group operations.


The dynamic configuration has the point symmetry C_3v.


Analysis of constrained symmetry for selective dynamics:
=====================================================================
 Subroutine PRICEL returns:
 Original cell was already a primitive cell.
 

 Routine SETGRP: Setting up the symmetry group for a 
 hexagonal supercell.


 Subroutine GETGRP returns: Found  6 space group operations
 (whereof  6 operations were pure point group operations)
 out of a pool of 24 trial point group operations.


The constrained configuration has the point symmetry C_3v.


 Subroutine INISYM returns: Found  6 space group operations
 (whereof  6 operations are pure point group operations),
 and found     1 'primitive' translations


 KPOINTS: k-points                                

Automatic generation of k-mesh.
 Grid dimensions read from file:
 generate k-points for:    9    9    1

 Generating k-lattice:

  Cartesian coordinates                     Fractional coordinates (reciprocal lattice)
     0.044514119  0.025700240 -0.000000000     0.111111111 -0.000000000  0.000000000
     0.000000000  0.051400480  0.000000000     0.000000000  0.111111111  0.000000000
     0.000000000 -0.000000000  0.054518439     0.000000000  0.000000000  1.000000000

  Length of vectors
     0.051400478  0.051400480  0.054518439

  Shift w.r.t. Gamma in fractional coordinates (k-lattice)
     0.000000000  0.000000000  0.000000000

 
 Subroutine IBZKPT returns following result:
 ===========================================
 
 Found     12 irreducible k-points:
 
 Following reciprocal coordinates:
            Coordinates               Weight
  0.000000  0.000000  0.000000      1.000000
  0.111111  0.000000  0.000000      6.000000
  0.222222  0.000000  0.000000      6.000000
  0.333333  0.000000  0.000000      6.000000
  0.444444  0.000000  0.000000      6.000000
  0.111111  0.111111  0.000000      6.000000
  0.222222  0.111111  0.000000     12.000000
  0.333333  0.111111  0.000000     12.000000
  0.444444  0.111111  0.000000      6.000000
  0.222222  0.222222  0.000000      6.000000
  0.333333  0.222222  0.000000     12.000000
  0.333333  0.333333  0.000000      2.000000
 
 Following cartesian coordinates:
            Coordinates               Weight
  0.000000  0.000000  0.000000      1.000000
  0.157135  0.090722  0.000000      6.000000
  0.314270  0.181444  0.000000      6.000000
  0.471405  0.272166  0.000000      6.000000
  0.628539  0.362887  0.000000      6.000000
  0.157135  0.272166  0.000000      6.000000
  0.314270  0.362887  0.000000     12.000000
  0.471405  0.453609  0.000000     12.000000
  0.628539  0.544331  0.000000      6.000000
  0.314270  0.544331  0.000000      6.000000
  0.471405  0.635053  0.000000     12.000000
  0.471405  0.816497  0.000000      2.000000
 
 writing wavefunctions
     LOOP+:  cpu time     33.2423: real time     33.5100
    4ORBIT:  cpu time      0.0000: real time      0.0000

 total amount of memory used by VASP MPI-rank0    41312. kBytes
=======================================================================

   base      :      30000. kBytes
   nonl-proj :       9829. kBytes
   fftplans  :        196. kBytes
   grid      :        799. kBytes
   one-center:        108. kBytes
   wavefun   :        380. kBytes

  
  
 General timing and accounting informations for this job:
 ========================================================
  
                  Total CPU time used (sec):     1155.208
                            User time (sec):       61.445
                          System time (sec):     1093.764
                         Elapsed time (sec):     1165.998
  
                   Maximum memory used (kb):      113176.
                   Average memory used (kb):          N/A
  
                          Minor page faults:        14047
                          Major page faults:          436
                 Voluntary context switches:         6853
