 Entering Gaussian System, Link 0=g16
 Input=BIH-conformers-7.gau
 Output=BIH-conformers-7.log
 Initial command:
 /apps/gaussian/g16c01/g16/l1.exe "/jobfs/62953833.gadi-pbs/Gau-1492317.inp" -scrdir="/jobfs/62953833.gadi-pbs/"
 Default is to use a total of  20 processors:
                               20 via shared-memory
                                1 via Linda
 Entering Link 1 = /apps/gaussian/g16c01/g16/l1.exe PID=   1492318.
  
 Copyright (c) 1988-2019, Gaussian, Inc.  All Rights Reserved.
  
 This is part of the Gaussian(R) 16 program.  It is based on
 the Gaussian(R) 09 system (copyright 2009, Gaussian, Inc.),
 the Gaussian(R) 03 system (copyright 2003, Gaussian, Inc.),
 the Gaussian(R) 98 system (copyright 1998, Gaussian, Inc.),
 the Gaussian(R) 94 system (copyright 1995, Gaussian, Inc.),
 the Gaussian 92(TM) system (copyright 1992, Gaussian, Inc.),
 the Gaussian 90(TM) system (copyright 1990, Gaussian, Inc.),
 the Gaussian 88(TM) system (copyright 1988, Gaussian, Inc.),
 the Gaussian 86(TM) system (copyright 1986, Carnegie Mellon
 University), and the Gaussian 82(TM) system (copyright 1983,
 Carnegie Mellon University). Gaussian is a federally registered
 trademark of Gaussian, Inc.
  
 This software contains proprietary and confidential information,
 including trade secrets, belonging to Gaussian, Inc.
  
 This software is provided under written license and may be
 used, copied, transmitted, or stored only in accord with that
 written license.
  
 The following legend is applicable only to US Government
 contracts under FAR:
  
                    RESTRICTED RIGHTS LEGEND
  
 Use, reproduction and disclosure by the US Government is
 subject to restrictions as set forth in subparagraphs (a)
 and (c) of the Commercial Computer Software - Restricted
 Rights clause in FAR 52.227-19.
  
 Gaussian, Inc.
 340 Quinnipiac St., Bldg. 40, Wallingford CT 06492
  
  
 ---------------------------------------------------------------
 Warning -- This program may not be used in any manner that
 competes with the business of Gaussian, Inc. or will provide
 assistance to any competitor of Gaussian, Inc.  The licensee
 of this program is prohibited from giving any competitor of
 Gaussian, Inc. access to this program.  By using this program,
 the user acknowledges that Gaussian, Inc. is engaged in the
 business of creating and licensing software in the field of
 computational chemistry and represents and warrants to the
 licensee that it is not a competitor of Gaussian, Inc. and that
 it will not use this program in any manner prohibited above.
 ---------------------------------------------------------------
  

 Cite this work as:
 Gaussian 16, Revision C.01,
 M. J. Frisch, G. W. Trucks, H. B. Schlegel, G. E. Scuseria, 
 M. A. Robb, J. R. Cheeseman, G. Scalmani, V. Barone, 
 G. A. Petersson, H. Nakatsuji, X. Li, M. Caricato, A. V. Marenich, 
 J. Bloino, B. G. Janesko, R. Gomperts, B. Mennucci, H. P. Hratchian, 
 J. V. Ortiz, A. F. Izmaylov, J. L. Sonnenberg, D. Williams-Young, 
 F. Ding, F. Lipparini, F. Egidi, J. Goings, B. Peng, A. Petrone, 
 T. Henderson, D. Ranasinghe, V. G. Zakrzewski, J. Gao, N. Rega, 
 G. Zheng, W. Liang, M. Hada, M. Ehara, K. Toyota, R. Fukuda, 
 J. Hasegawa, M. Ishida, T. Nakajima, Y. Honda, O. Kitao, H. Nakai, 
 T. Vreven, K. Throssell, J. A. Montgomery, Jr., J. E. Peralta, 
 F. Ogliaro, M. J. Bearpark, J. J. Heyd, E. N. Brothers, K. N. Kudin, 
 V. N. Staroverov, T. A. Keith, R. Kobayashi, J. Normand, 
 K. Raghavachari, A. P. Rendell, J. C. Burant, S. S. Iyengar, 
 J. Tomasi, M. Cossi, J. M. Millam, M. Klene, C. Adamo, R. Cammi, 
 J. W. Ochterski, R. L. Martin, K. Morokuma, O. Farkas, 
 J. B. Foresman, and D. J. Fox, Gaussian, Inc., Wallingford CT, 2019.
 
 ******************************************
 Gaussian 16:  ES64L-G16RevC.01  3-Jul-2019
                 7-Nov-2022 
 ******************************************
 %chk=BIH-conformers-7.chk
 Default route: Maxdisk=0MB
 ----------------------------------------------------------------------
 # opt(maxcycles=1000) freq=Noraman scf(maxcycle=500) uwb97xd/6-31+G(d,
 p) scrf=(smd,solvent=acetonitrile)
 ----------------------------------------------------------------------
 1/6=1000,18=20,19=15,26=3,38=1/1,3;
 2/9=110,12=2,17=6,18=5,40=1/2;
 3/5=1,6=6,7=111,11=2,25=1,30=1,70=32201,71=1,72=2,74=-58,116=2/1,2,3;
 4//1;
 5/5=2,7=500,38=5,53=2/2;
 6/7=2,8=2,9=2,10=2,28=1/1;
 7//1,2,3,16;
 1/6=1000,18=20,19=15,26=3/3(2);
 2/9=110/2;
 99//99;
 2/9=110/2;
 3/5=1,6=6,7=111,11=2,25=1,30=1,70=32205,71=1,72=2,74=-58,116=2/1,2,3;
 4/5=5,16=3,69=1/1;
 5/5=2,7=500,38=5,53=2/2;
 7//1,2,3,16;
 1/6=1000,18=20,19=15,26=3/3(-5);
 2/9=110/2;
 6/7=2,8=2,9=2,10=2,19=2,28=1/1;
 99/9=1/99;
 ----------
 OPT + Freq
 ----------
 Symbolic Z-matrix:
 Charge =  0 Multiplicity = 1
 C                     0.30509  -0.15419   0.49951 
 N                    -0.43387   1.13854   0.45406 
 C                    -1.78696   0.64876   0.46246 
 C                    -1.82156  -0.67608   0.00138 
 N                    -0.502    -1.15205  -0.25699 
 C                    -3.02972  -1.34513  -0.16517 
 C                    -4.2105   -0.6582    0.15205 
 C                    -4.17463   0.66007   0.62058 
 C                    -2.95401   1.33358   0.77525 
 C                     1.79073  -0.10788   0.22248 
 C                     2.47471  -1.25601  -0.19718 
 C                     3.86351  -1.24592  -0.34177 
 C                     4.59341  -0.0917   -0.05128 
 C                     3.92299   1.04588   0.40376 
 C                     2.53416   1.0345    0.5471 
 C                    -0.21651  -1.39511  -1.68838 
 C                    -0.23338   1.97639  -0.75003 
 H                     0.19944  -0.46973   1.54723 
 H                    -3.05652  -2.36917  -0.53012 
 H                    -5.16791  -1.16167   0.03974 
 H                    -5.10294   1.16911   0.86869 
 H                    -2.92013   2.36518   1.11805 
 H                     1.92772  -2.17117  -0.39865 
 H                     4.37422  -2.14641  -0.67535 
 H                     5.67484  -0.08282  -0.16543 
 H                     4.48104   1.94514   0.65432 
 H                     2.02947   1.91772   0.92815 
 H                     0.33499  -2.32963  -1.82568 
 H                     0.36308  -0.58293  -2.13983 
 H                    -1.16437  -1.47888  -2.22673 
 H                     0.80627   2.29637  -0.82771 
 H                    -0.86049   2.86635  -0.64899 
 H                    -0.51756   1.45814  -1.67667 
 

 GradGradGradGradGradGradGradGradGradGradGradGradGradGradGradGradGradGrad
 Berny optimization.
 Initialization pass.
                           ----------------------------
                           !    Initial Parameters    !
                           ! (Angstroms and Degrees)  !
 --------------------------                            --------------------------
 ! Name  Definition              Value          Derivative Info.                !
 --------------------------------------------------------------------------------
 ! R1    R(1,2)                  1.4897         estimate D2E/DX2                !
 ! R2    R(1,5)                  1.4898         estimate D2E/DX2                !
 ! R3    R(1,10)                 1.512          estimate D2E/DX2                !
 ! R4    R(1,18)                 1.0993         estimate D2E/DX2                !
 ! R5    R(2,3)                  1.439          estimate D2E/DX2                !
 ! R6    R(2,17)                 1.4806         estimate D2E/DX2                !
 ! R7    R(3,4)                  1.4032         estimate D2E/DX2                !
 ! R8    R(3,9)                  1.3888         estimate D2E/DX2                !
 ! R9    R(4,5)                  1.4264         estimate D2E/DX2                !
 ! R10   R(4,6)                  1.391          estimate D2E/DX2                !
 ! R11   R(5,16)                 1.4797         estimate D2E/DX2                !
 ! R12   R(6,7)                  1.4024         estimate D2E/DX2                !
 ! R13   R(6,19)                 1.0875         estimate D2E/DX2                !
 ! R14   R(7,8)                  1.3995         estimate D2E/DX2                !
 ! R15   R(7,20)                 1.0875         estimate D2E/DX2                !
 ! R16   R(8,9)                  1.4027         estimate D2E/DX2                !
 ! R17   R(8,21)                 1.0874         estimate D2E/DX2                !
 ! R18   R(9,22)                 1.0876         estimate D2E/DX2                !
 ! R19   R(10,11)                1.4008         estimate D2E/DX2                !
 ! R20   R(10,15)                1.4011         estimate D2E/DX2                !
 ! R21   R(11,12)                1.3963         estimate D2E/DX2                !
 ! R22   R(11,23)                1.085          estimate D2E/DX2                !
 ! R23   R(12,13)                1.3962         estimate D2E/DX2                !
 ! R24   R(12,24)                1.0876         estimate D2E/DX2                !
 ! R25   R(13,14)                1.3966         estimate D2E/DX2                !
 ! R26   R(13,25)                1.0875         estimate D2E/DX2                !
 ! R27   R(14,15)                1.3963         estimate D2E/DX2                !
 ! R28   R(14,26)                1.0876         estimate D2E/DX2                !
 ! R29   R(15,27)                1.0863         estimate D2E/DX2                !
 ! R30   R(16,28)                1.0938         estimate D2E/DX2                !
 ! R31   R(16,29)                1.0952         estimate D2E/DX2                !
 ! R32   R(16,30)                1.0933         estimate D2E/DX2                !
 ! R33   R(17,31)                1.0905         estimate D2E/DX2                !
 ! R34   R(17,32)                1.0934         estimate D2E/DX2                !
 ! R35   R(17,33)                1.0991         estimate D2E/DX2                !
 ! A1    A(2,1,5)              107.2784         estimate D2E/DX2                !
 ! A2    A(2,1,10)             117.0802         estimate D2E/DX2                !
 ! A3    A(2,1,18)             103.3259         estimate D2E/DX2                !
 ! A4    A(5,1,10)             117.3741         estimate D2E/DX2                !
 ! A5    A(5,1,18)             103.8655         estimate D2E/DX2                !
 ! A6    A(10,1,18)            106.1321         estimate D2E/DX2                !
 ! A7    A(1,2,3)               99.8398         estimate D2E/DX2                !
 ! A8    A(1,2,17)             116.6613         estimate D2E/DX2                !
 ! A9    A(3,2,17)             108.9465         estimate D2E/DX2                !
 ! A10   A(2,3,4)              110.0357         estimate D2E/DX2                !
 ! A11   A(2,3,9)              128.5814         estimate D2E/DX2                !
 ! A12   A(4,3,9)              121.2546         estimate D2E/DX2                !
 ! A13   A(3,4,5)              110.5955         estimate D2E/DX2                !
 ! A14   A(3,4,6)              120.9885         estimate D2E/DX2                !
 ! A15   A(5,4,6)              128.411          estimate D2E/DX2                !
 ! A16   A(1,5,4)              100.7016         estimate D2E/DX2                !
 ! A17   A(1,5,16)             119.7833         estimate D2E/DX2                !
 ! A18   A(4,5,16)             114.1124         estimate D2E/DX2                !
 ! A19   A(4,6,7)              117.943          estimate D2E/DX2                !
 ! A20   A(4,6,19)             120.965          estimate D2E/DX2                !
 ! A21   A(7,6,19)             121.092          estimate D2E/DX2                !
 ! A22   A(6,7,8)              121.0329         estimate D2E/DX2                !
 ! A23   A(6,7,20)             119.4131         estimate D2E/DX2                !
 ! A24   A(8,7,20)             119.552          estimate D2E/DX2                !
 ! A25   A(7,8,9)              120.7649         estimate D2E/DX2                !
 ! A26   A(7,8,21)             119.6996         estimate D2E/DX2                !
 ! A27   A(9,8,21)             119.5355         estimate D2E/DX2                !
 ! A28   A(3,9,8)              118.012          estimate D2E/DX2                !
 ! A29   A(3,9,22)             120.8313         estimate D2E/DX2                !
 ! A30   A(8,9,22)             121.1525         estimate D2E/DX2                !
 ! A31   A(1,10,11)            120.6358         estimate D2E/DX2                !
 ! A32   A(1,10,15)            120.2574         estimate D2E/DX2                !
 ! A33   A(11,10,15)           118.5951         estimate D2E/DX2                !
 ! A34   A(10,11,12)           120.7139         estimate D2E/DX2                !
 ! A35   A(10,11,23)           120.0521         estimate D2E/DX2                !
 ! A36   A(12,11,23)           119.2268         estimate D2E/DX2                !
 ! A37   A(11,12,13)           120.2902         estimate D2E/DX2                !
 ! A38   A(11,12,24)           119.5246         estimate D2E/DX2                !
 ! A39   A(13,12,24)           120.1836         estimate D2E/DX2                !
 ! A40   A(12,13,14)           119.3534         estimate D2E/DX2                !
 ! A41   A(12,13,25)           120.3166         estimate D2E/DX2                !
 ! A42   A(14,13,25)           120.3249         estimate D2E/DX2                !
 ! A43   A(13,14,15)           120.2832         estimate D2E/DX2                !
 ! A44   A(13,14,26)           120.1476         estimate D2E/DX2                !
 ! A45   A(15,14,26)           119.5684         estimate D2E/DX2                !
 ! A46   A(10,15,14)           120.7066         estimate D2E/DX2                !
 ! A47   A(10,15,27)           119.8471         estimate D2E/DX2                !
 ! A48   A(14,15,27)           119.4405         estimate D2E/DX2                !
 ! A49   A(5,16,28)            111.0427         estimate D2E/DX2                !
 ! A50   A(5,16,29)            112.2758         estimate D2E/DX2                !
 ! A51   A(5,16,30)            108.7626         estimate D2E/DX2                !
 ! A52   A(28,16,29)           108.3637         estimate D2E/DX2                !
 ! A53   A(28,16,30)           108.0514         estimate D2E/DX2                !
 ! A54   A(29,16,30)           108.22           estimate D2E/DX2                !
 ! A55   A(2,17,31)            110.6753         estimate D2E/DX2                !
 ! A56   A(2,17,32)            107.9264         estimate D2E/DX2                !
 ! A57   A(2,17,33)            112.5695         estimate D2E/DX2                !
 ! A58   A(31,17,32)           108.333          estimate D2E/DX2                !
 ! A59   A(31,17,33)           108.9533         estimate D2E/DX2                !
 ! A60   A(32,17,33)           108.2649         estimate D2E/DX2                !
 ! D1    D(5,1,2,3)             33.4312         estimate D2E/DX2                !
 ! D2    D(5,1,2,17)           -83.6869         estimate D2E/DX2                !
 ! D3    D(10,1,2,3)           167.8465         estimate D2E/DX2                !
 ! D4    D(10,1,2,17)           50.7284         estimate D2E/DX2                !
 ! D5    D(18,1,2,3)           -75.9343         estimate D2E/DX2                !
 ! D6    D(18,1,2,17)          166.9476         estimate D2E/DX2                !
 ! D7    D(2,1,5,4)            -31.7229         estimate D2E/DX2                !
 ! D8    D(2,1,5,16)            94.235          estimate D2E/DX2                !
 ! D9    D(10,1,5,4)          -165.9835         estimate D2E/DX2                !
 ! D10   D(10,1,5,16)          -40.0255         estimate D2E/DX2                !
 ! D11   D(18,1,5,4)            77.2673         estimate D2E/DX2                !
 ! D12   D(18,1,5,16)         -156.7747         estimate D2E/DX2                !
 ! D13   D(2,1,10,11)         -158.4106         estimate D2E/DX2                !
 ! D14   D(2,1,10,15)           29.9097         estimate D2E/DX2                !
 ! D15   D(5,1,10,11)          -28.5902         estimate D2E/DX2                !
 ! D16   D(5,1,10,15)          159.7301         estimate D2E/DX2                !
 ! D17   D(18,1,10,11)          86.9209         estimate D2E/DX2                !
 ! D18   D(18,1,10,15)         -84.7588         estimate D2E/DX2                !
 ! D19   D(1,2,3,4)            -22.4357         estimate D2E/DX2                !
 ! D20   D(1,2,3,9)            161.7008         estimate D2E/DX2                !
 ! D21   D(17,2,3,4)           100.3189         estimate D2E/DX2                !
 ! D22   D(17,2,3,9)           -75.5446         estimate D2E/DX2                !
 ! D23   D(1,2,17,31)          -63.3885         estimate D2E/DX2                !
 ! D24   D(1,2,17,32)          178.2244         estimate D2E/DX2                !
 ! D25   D(1,2,17,33)           58.8063         estimate D2E/DX2                !
 ! D26   D(3,2,17,31)         -175.3846         estimate D2E/DX2                !
 ! D27   D(3,2,17,32)           66.2284         estimate D2E/DX2                !
 ! D28   D(3,2,17,33)          -53.1898         estimate D2E/DX2                !
 ! D29   D(2,3,4,5)              3.4176         estimate D2E/DX2                !
 ! D30   D(2,3,4,6)           -175.8327         estimate D2E/DX2                !
 ! D31   D(9,3,4,5)            179.6356         estimate D2E/DX2                !
 ! D32   D(9,3,4,6)              0.3853         estimate D2E/DX2                !
 ! D33   D(2,3,9,8)            175.6338         estimate D2E/DX2                !
 ! D34   D(2,3,9,22)            -3.6338         estimate D2E/DX2                !
 ! D35   D(4,3,9,8)              0.1806         estimate D2E/DX2                !
 ! D36   D(4,3,9,22)          -179.0871         estimate D2E/DX2                !
 ! D37   D(3,4,5,1)             17.3538         estimate D2E/DX2                !
 ! D38   D(3,4,5,16)          -112.3204         estimate D2E/DX2                !
 ! D39   D(6,4,5,1)           -163.4664         estimate D2E/DX2                !
 ! D40   D(6,4,5,16)            66.8593         estimate D2E/DX2                !
 ! D41   D(3,4,6,7)             -0.4969         estimate D2E/DX2                !
 ! D42   D(3,4,6,19)           179.5039         estimate D2E/DX2                !
 ! D43   D(5,4,6,7)           -179.6012         estimate D2E/DX2                !
 ! D44   D(5,4,6,19)             0.3996         estimate D2E/DX2                !
 ! D45   D(1,5,16,28)          103.1671         estimate D2E/DX2                !
 ! D46   D(1,5,16,29)          -18.3248         estimate D2E/DX2                !
 ! D47   D(1,5,16,30)         -138.0604         estimate D2E/DX2                !
 ! D48   D(4,5,16,28)         -137.455          estimate D2E/DX2                !
 ! D49   D(4,5,16,29)          101.0531         estimate D2E/DX2                !
 ! D50   D(4,5,16,30)          -18.6825         estimate D2E/DX2                !
 ! D51   D(4,6,7,8)              0.0549         estimate D2E/DX2                !
 ! D52   D(4,6,7,20)          -179.4261         estimate D2E/DX2                !
 ! D53   D(19,6,7,8)          -179.9459         estimate D2E/DX2                !
 ! D54   D(19,6,7,20)            0.5731         estimate D2E/DX2                !
 ! D55   D(6,7,8,9)              0.5121         estimate D2E/DX2                !
 ! D56   D(6,7,8,21)          -179.4419         estimate D2E/DX2                !
 ! D57   D(20,7,8,9)           179.9924         estimate D2E/DX2                !
 ! D58   D(20,7,8,21)            0.0384         estimate D2E/DX2                !
 ! D59   D(7,8,9,3)             -0.6208         estimate D2E/DX2                !
 ! D60   D(7,8,9,22)           178.6444         estimate D2E/DX2                !
 ! D61   D(21,8,9,3)           179.3333         estimate D2E/DX2                !
 ! D62   D(21,8,9,22)           -1.4015         estimate D2E/DX2                !
 ! D63   D(1,10,11,12)        -174.4094         estimate D2E/DX2                !
 ! D64   D(1,10,11,23)           4.6077         estimate D2E/DX2                !
 ! D65   D(15,10,11,12)         -2.5937         estimate D2E/DX2                !
 ! D66   D(15,10,11,23)        176.4234         estimate D2E/DX2                !
 ! D67   D(1,10,15,14)         174.4034         estimate D2E/DX2                !
 ! D68   D(1,10,15,27)          -4.7103         estimate D2E/DX2                !
 ! D69   D(11,10,15,14)          2.5557         estimate D2E/DX2                !
 ! D70   D(11,10,15,27)       -176.5579         estimate D2E/DX2                !
 ! D71   D(10,11,12,13)          0.8741         estimate D2E/DX2                !
 ! D72   D(10,11,12,24)       -179.5863         estimate D2E/DX2                !
 ! D73   D(23,11,12,13)       -178.151          estimate D2E/DX2                !
 ! D74   D(23,11,12,24)          1.3886         estimate D2E/DX2                !
 ! D75   D(11,12,13,14)          0.9284         estimate D2E/DX2                !
 ! D76   D(11,12,13,25)       -179.8909         estimate D2E/DX2                !
 ! D77   D(24,12,13,14)       -178.6082         estimate D2E/DX2                !
 ! D78   D(24,12,13,25)          0.5725         estimate D2E/DX2                !
 ! D79   D(12,13,14,15)         -0.9659         estimate D2E/DX2                !
 ! D80   D(12,13,14,26)        178.6807         estimate D2E/DX2                !
 ! D81   D(25,13,14,15)        179.8535         estimate D2E/DX2                !
 ! D82   D(25,13,14,26)         -0.4999         estimate D2E/DX2                !
 ! D83   D(13,14,15,10)         -0.7981         estimate D2E/DX2                !
 ! D84   D(13,14,15,27)        178.3192         estimate D2E/DX2                !
 ! D85   D(26,14,15,10)        179.5533         estimate D2E/DX2                !
 ! D86   D(26,14,15,27)         -1.3295         estimate D2E/DX2                !
 --------------------------------------------------------------------------------
 Trust Radius=3.00D-01 FncErr=1.00D-07 GrdErr=1.00D-06 EigMax=2.50D+02 EigMin=1.00D-04
 Number of steps in this run=    198 maximum allowed number of steps=    198.
 GradGradGradGradGradGradGradGradGradGradGradGradGradGradGradGradGradGrad

                          Input orientation:                          
 ---------------------------------------------------------------------
 Center     Atomic      Atomic             Coordinates (Angstroms)
 Number     Number       Type             X           Y           Z
 ---------------------------------------------------------------------
      1          6           0        0.305087   -0.154190    0.499509
      2          7           0       -0.433870    1.138536    0.454058
      3          6           0       -1.786965    0.648763    0.462458
      4          6           0       -1.821561   -0.676075    0.001376
      5          7           0       -0.501999   -1.152050   -0.256986
      6          6           0       -3.029716   -1.345133   -0.165169
      7          6           0       -4.210503   -0.658199    0.152055
      8          6           0       -4.174629    0.660068    0.620583
      9          6           0       -2.954013    1.333580    0.775250
     10          6           0        1.790728   -0.107883    0.222480
     11          6           0        2.474706   -1.256014   -0.197176
     12          6           0        3.863509   -1.245922   -0.341774
     13          6           0        4.593408   -0.091697   -0.051276
     14          6           0        3.922995    1.045882    0.403763
     15          6           0        2.534157    1.034498    0.547104
     16          6           0       -0.216506   -1.395109   -1.688380
     17          6           0       -0.233376    1.976394   -0.750034
     18          1           0        0.199441   -0.469730    1.547226
     19          1           0       -3.056523   -2.369167   -0.530122
     20          1           0       -5.167906   -1.161667    0.039739
     21          1           0       -5.102939    1.169110    0.868689
     22          1           0       -2.920125    2.365177    1.118048
     23          1           0        1.927717   -2.171166   -0.398646
     24          1           0        4.374223   -2.146407   -0.675353
     25          1           0        5.674835   -0.082818   -0.165431
     26          1           0        4.481036    1.945138    0.654321
     27          1           0        2.029466    1.917719    0.928155
     28          1           0        0.334988   -2.329632   -1.825680
     29          1           0        0.363076   -0.582931   -2.139834
     30          1           0       -1.164370   -1.478877   -2.226726
     31          1           0        0.806275    2.296374   -0.827713
     32          1           0       -0.860486    2.866354   -0.648993
     33          1           0       -0.517562    1.458140   -1.676666
 ---------------------------------------------------------------------
                    Distance matrix (angstroms):
                    1          2          3          4          5
     1  C    0.000000
     2  N    1.489720   0.000000
     3  C    2.241158   1.439032   0.000000
     4  C    2.245692   2.328824   1.403208   0.000000
     5  N    1.489765   2.399377   2.326299   1.426375   0.000000
     6  C    3.602923   3.645609   2.431865   1.391047   2.536742
     7  C    4.556897   4.193140   2.770928   2.393756   3.763536
     8  C    4.554726   3.774909   2.392921   2.775901   4.188330
     9  C    3.593220   2.548004   1.388818   2.433114   3.640912
    10  C    1.511958   2.560474   3.664695   3.663381   2.564522
    11  C    2.531133   3.823322   4.714354   4.339777   2.979121
    12  C    3.816019   4.978599   6.013690   5.723853   4.367340
    13  C    4.323999   5.200227   6.443707   6.441746   5.208632
    14  C    3.812951   4.358140   5.724053   6.010572   4.984784
    15  C    2.526656   2.971307   4.339130   4.711279   3.826983
    16  C    2.568813   3.325154   3.357061   2.438952   1.479687
    17  C    2.527981   1.480555   2.376211   3.181594   3.178431
    18  H    1.099289   2.045145   2.524590   2.552778   2.052500
    19  H    4.155320   4.488975   3.421242   2.161985   2.842809
    20  H    5.583911   5.279554   3.858382   3.381612   4.675342
    21  H    5.579800   4.687543   3.381045   3.863209   5.274806
    22  H    4.139057   2.850789   2.158686   3.420967   4.484299
    23  H    2.740037   4.154314   4.742611   4.056155   2.638595
    24  H    4.680501   5.931625   6.860599   6.403715   4.994128
    25  H    5.411232   6.260332   7.523823   7.521684   6.269364
    26  H    4.676504   4.984678   6.403533   6.857100   5.937482
    27  H    2.729474   2.626770   4.048737   4.734670   4.151670
    28  H    3.184329   4.220964   4.313826   3.274612   2.132615
    29  H    2.674569   3.213542   3.593281   3.060407   2.148807
    30  H    3.368451   3.817209   3.485138   2.457809   2.103670
    31  H    2.831602   2.126379   3.332275   4.053192   3.732150
    32  H    3.435303   2.093820   2.647904   3.727661   4.053364
    33  H    2.830565   2.156185   2.615784   3.011829   2.971334
                    6          7          8          9         10
     6  C    0.000000
     7  C    1.402415   0.000000
     8  C    2.439070   1.399512   0.000000
     9  C    2.840004   2.436047   1.402656   0.000000
    10  C    4.991767   6.026822   6.027746   4.989583   0.000000
    11  C    5.505236   6.720965   6.968053   6.092832   1.400764
    12  C    6.896200   8.110422   8.316885   7.374291   2.431036
    13  C    7.726324   8.824462   8.825815   7.725162   2.816065
    14  C    7.374335   8.313906   8.109709   6.893041   2.431172
    15  C    6.093164   6.965036   6.719628   5.501046   1.401107
    16  C    3.199503   4.458952   5.022131   4.583575   3.055704
    17  C    4.381110   4.855141   4.375475   3.184583   3.063820
    18  H    3.758467   4.629214   4.611680   3.713777   2.101923
    19  H    1.087454   2.173579   3.427907   3.927447   5.401449
    20  H    2.155807   1.087527   2.154692   3.415927   7.040344
    21  H    3.418850   2.156169   1.087401   2.157235   7.040663
    22  H    3.927474   3.426226   2.174545   1.087590   5.395388
    23  H    5.031200   6.345871   6.803921   6.123117   2.159097
    24  H    7.464625   8.751965   9.090578   8.241213   3.411177
    25  H    8.795604   9.907158   9.908665   8.794776   3.903510
    26  H    8.240682   9.086940   8.750604   7.461138   3.411618
    27  H    6.118569   6.795212   6.337751   5.019927   2.158249
    28  H    3.879145   5.231311   5.937942   5.567898   3.354148
    29  H    3.998911   5.116253   5.454880   4.813918   2.800784
    30  H    2.783418   3.951080   4.663036   4.486044   4.075640
    31  H    5.330512   5.904025   5.439160   4.199551   2.802232
    32  H    4.761960   4.928161   4.178883   2.959852   4.078540
    33  H    4.056338   4.632594   4.391857   3.458858   3.374520
                   11         12         13         14         15
    11  C    0.000000
    12  C    1.396346   0.000000
    13  C    2.421945   1.396201   0.000000
    14  C    2.785209   2.410752   1.396639   0.000000
    15  C    2.409135   2.785246   2.422166   1.396262   0.000000
    16  C    3.079880   4.299084   5.245404   5.241275   4.297269
    17  C    4.252978   5.228237   5.297462   4.412767   3.198276
    18  H    2.972880   4.194781   4.690956   4.179646   2.951922
    19  H    5.651943   7.013130   7.996099   7.826133   6.633328
    20  H    7.646866   9.039862   9.820202   9.362172   8.025106
    21  H    8.027328   9.364549   9.821157   9.038740   7.645048
    22  H    6.629257   7.822327   7.991041   7.005643   5.643215
    23  H    1.085030   2.146299   3.398642   3.869676   3.396835
    24  H    2.151654   1.087648   2.158552   3.399824   3.872777
    25  H    3.408551   2.159817   1.087472   2.160299   3.408807
    26  H    3.872696   3.399471   2.158516   1.087589   2.151999
    27  H    3.396644   3.871054   3.401593   2.149544   1.086275
    28  H    2.895354   3.978299   5.127475   5.407245   4.667313
    29  H    2.947193   3.990690   4.743321   4.668612   3.814355
    30  H    4.172723   5.374652   6.309426   6.259006   5.262156
    31  H    3.975009   4.704325   4.544020   3.576899   2.543232
    32  H    5.321801   6.270672   6.233161   5.225333   4.038558
    33  H    4.302231   5.318615   5.582643   4.921045   3.799685
                   16         17         18         19         20
    16  C    0.000000
    17  C    3.499688   0.000000
    18  H    3.390941   3.383527   0.000000
    19  H    3.218081   5.186754   4.304013   0.000000
    20  H    5.249500   5.900912   5.617802   2.498147   0.000000
    21  H    6.082027   5.194672   5.591193   4.320173   2.474652
    22  H    5.415289   3.295377   4.237049   5.014886   4.319016
    23  H    2.619803   4.689994   3.109379   4.989903   7.180469
    24  H    4.760826   6.183286   5.017958   7.435502   9.619423
    25  H    6.224900   6.284033   5.750030   9.033106  10.898213
    26  H    6.221929   4.919235   4.996091   8.765325  10.155394
    27  H    4.781786   2.817839   3.071182   6.809644   7.878710
    28  H    1.093769   4.474585   3.854102   3.630754   5.926700
    29  H    1.095153   2.972784   3.692425   4.180366   5.973042
    30  H    1.093288   3.871210   4.137761   2.692827   4.611484
    31  H    3.926051   1.090548   3.695932   6.064407   6.957109
    32  H    4.433408   1.093392   4.132346   5.678679   5.937438
    33  H    2.869112   1.099089   3.824167   4.733832   5.606705
                   21         22         23         24         25
    21  H    0.000000
    22  H    2.501486   0.000000
    23  H    7.886298   6.810311   0.000000
    24  H   10.158411   8.762316   2.462229   0.000000
    25  H   10.899410   9.028474   4.296100   2.491989   0.000000
    26  H    9.617731   7.427561   4.957028   4.303508   2.491938
    27  H    7.171831   4.973403   4.299969   4.958452   4.299627
    28  H    7.005132   6.426704   2.144369   4.203836   6.026488
    29  H    6.480600   5.484939   2.828838   4.547358   5.688863
    30  H    5.666194   5.389521   3.658161   5.790368   7.278231
    31  H    6.250385   4.204376   4.626083   5.700155   5.459126
    32  H    4.814811   2.759661   5.763103   7.247803   7.186228
    33  H    5.252433   3.795452   4.559011   6.158323   6.557756
                   26         27         28         29         30
    26  H    0.000000
    27  H    2.466968   0.000000
    28  H    6.450874   5.338057   0.000000
    29  H    5.581759   4.294493   1.774950   0.000000
    30  H    7.203813   5.629452   1.769943   1.772952   0.000000
    31  H    3.977897   2.173165   4.755837   3.195072   4.482544
    32  H    5.574866   3.426241   5.460039   3.951871   4.632777
    33  H    5.536844   3.672010   3.885391   2.270687   3.057286
                   31         32         33
    31  H    0.000000
    32  H    1.770568   0.000000
    33  H    1.782106   1.776732   0.000000
 Stoichiometry    C15H16N2
 Framework group  C1[X(C15H16N2)]
 Deg. of freedom    93
 Full point group                 C1      NOp   1
 Largest Abelian subgroup         C1      NOp   1
 Largest concise Abelian subgroup C1      NOp   1
                         Standard orientation:                         
 ---------------------------------------------------------------------
 Center     Atomic      Atomic             Coordinates (Angstroms)
 Number     Number       Type             X           Y           Z
 ---------------------------------------------------------------------
      1          6           0        0.280913   -0.027283   -0.542106
      2          7           0       -0.479211   -1.217591   -0.068142
      3          6           0       -1.822867   -0.719097   -0.198168
      4          6           0       -1.818655    0.684022   -0.182949
      5          7           0       -0.483050    1.181151   -0.123238
      6          6           0       -3.008550    1.404114   -0.208056
      7          6           0       -4.211179    0.684545   -0.259759
      8          6           0       -4.214238   -0.714751   -0.284161
      9          6           0       -3.011583   -1.435625   -0.246694
     10          6           0        1.773734   -0.023683   -0.302335
     11          6           0        2.491504    1.179125   -0.288134
     12          6           0        3.883881    1.177549   -0.182943
     13          6           0        4.583115   -0.028645   -0.108488
     14          6           0        3.877935   -1.233086   -0.159920
     15          6           0        2.485586   -1.229885   -0.264332
     16          6           0       -0.146690    1.859183    1.148220
     17          6           0       -0.254576   -1.633860    1.334819
     18          1           0        0.146804   -0.058802   -1.632728
     19          1           0       -3.005082    2.491380   -0.188181
     20          1           0       -5.155232    1.223598   -0.289760
     21          1           0       -5.159122   -1.250664   -0.333478
     22          1           0       -3.007388   -2.523202   -0.243346
     23          1           0        1.967865    2.125430   -0.375308
     24          1           0        4.421261    2.123036   -0.166949
     25          1           0        5.667358   -0.030342   -0.024775
     26          1           0        4.411301   -2.180252   -0.124604
     27          1           0        1.952986   -2.174284   -0.330961
     28          1           0        0.425646    2.773344    0.966366
     29          1           0        0.432670    1.217350    1.820345
     30          1           0       -1.074829    2.135839    1.655467
     31          1           0        0.781155   -1.940826    1.484241
     32          1           0       -0.900495   -2.492184    1.538723
     33          1           0       -0.499042   -0.840084    2.054646
 ---------------------------------------------------------------------
 Rotational constants (GHZ):           1.3220849           0.2882065           0.2526451
 Standard basis: 6-31+G(d,p) (6D, 7F)
 There are   403 symmetry adapted cartesian basis functions of A   symmetry.
 There are   403 symmetry adapted basis functions of A   symmetry.
   403 basis functions,   656 primitive gaussians,   403 cartesian basis functions
    60 alpha electrons       60 beta electrons
       nuclear repulsion energy      1163.3012490736 Hartrees.
 NAtoms=   33 NActive=   33 NUniq=   33 SFac= 1.00D+00 NAtFMM=   60 NAOKFM=F Big=F
 Integral buffers will be    131072 words long.
 Raffenetti 2 integral format.
 Two-electron integral symmetry is turned on.
 Nuclear repulsion after empirical dispersion term =     1163.2751424680 Hartrees.
 ------------------------------------------------------------------------------
 Polarizable Continuum Model (PCM)
 =================================
 Model                : PCM.
 Atomic radii         : SMD-Coulomb.
 Polarization charges : Total charges.
 Charge compensation  : None.
 Solution method      : On-the-fly selection.
 Cavity type          : VdW (van der Waals Surface) (Alpha=1.000).
 Cavity algorithm     : GePol (No added spheres)
                        Default sphere list used, NSphG=   33.
                        Lebedev-Laikov grids with approx.  5.0 points / Ang**2.
                        Smoothing algorithm: York/Karplus (Gamma=1.0000).
                        Polarization charges: spherical gaussians, with
                                              point-specific exponents (IZeta= 3).
                        Self-potential: point-specific (ISelfS= 7).
                        Self-field    : sphere-specific E.n sum rule (ISelfD= 2).
 1st derivatives      : Analytical E(r).r(x)/FMM algorithm (CHGder, D1EAlg=3).
                        Cavity 1st derivative terms included.
 Solvent              : Acetonitrile, Eps=  35.688000 Eps(inf)=   1.806874
 ------------------------------------------------------------------------------
 ------------------------------------------------------------------------------
 Atomic radii for non-electrostatic terms: SMD-CDS.
 ------------------------------------------------------------------------------
 Nuclear repulsion after PCM non-electrostatic terms =     1163.2698969820 Hartrees.
 One-electron integrals computed using PRISM.
 NBasis=   403 RedAO= T EigKep=  1.48D-06  NBF=   403
 NBsUse=   402 1.00D-06 EigRej=  4.35D-07 NBFU=   402
 ExpMin= 4.38D-02 ExpMax= 4.17D+03 ExpMxC= 6.27D+02 IAcc=3 IRadAn=         5 AccDes= 0.00D+00
 Harris functional with IExCor= 4639 and IRadAn=       5 diagonalized for initial guess.
 HarFok:  IExCor= 4639 AccDes= 0.00D+00 IRadAn=         5 IDoV= 1 UseB2=F ITyADJ=14
 ICtDFT=  3500011 ScaDFX=  1.000000  1.000000  1.000000  1.000000
 FoFCou: FMM=F IPFlag=           0 FMFlag=      100000 FMFlg1=           0
         NFxFlg=           0 DoJE=T BraDBF=F KetDBF=T FulRan=T
         wScrn=  0.000000 ICntrl=       500 IOpCl=  0 I1Cent=   200000004 NGrid=           0
         NMat0=    1 NMatS0=      1 NMatT0=    0 NMatD0=    1 NMtDS0=    0 NMtDT0=    0
 Petite list used in FoFCou.
 Initial guess <Sx>= 0.0000 <Sy>= 0.0000 <Sz>= 0.0000 <S**2>= 0.0000 S= 0.0000
 Requested convergence on RMS density matrix=1.00D-08 within 500 cycles.
 Requested convergence on MAX density matrix=1.00D-06.
 Requested convergence on             energy=1.00D-06.
 No special actions if energy rises.
 Inv3:  Mode=1 IEnd=    17078988.
 Iteration    1 A*A^-1 deviation from unit magnitude is 9.66D-15 for   2370.
 Iteration    1 A*A^-1 deviation from orthogonality  is 4.84D-15 for   2370   1485.
 Iteration    1 A^-1*A deviation from unit magnitude is 9.66D-15 for   2370.
 Iteration    1 A^-1*A deviation from orthogonality  is 1.44D-15 for    803    450.
 Error on total polarization charges =  0.06212
 SCF Done:  E(UwB97XD) =  -690.540390161     A.U. after   16 cycles
            NFock= 16  Conv=0.75D-08     -V/T= 2.0097
 <Sx>= 0.0000 <Sy>= 0.0000 <Sz>= 0.0000 <S**2>=-0.0000 S=-0.0000
 <L.S>= 0.000000000000E+00
 SMD-CDS (non-electrostatic) energy       (kcal/mol) =      -3.29
 (included in total energy above)
 Annihilation of the first spin contaminant:
 S**2 before annihilation    -0.0000,   after    -0.0000

 **********************************************************************

            Population analysis using the SCF Density.

 **********************************************************************

 Orbital symmetries:
 Alpha Orbitals:
       Occupied  (A) (A) (A) (A) (A) (A) (A) (A) (A) (A) (A) (A)
                 (A) (A) (A) (A) (A) (A) (A) (A) (A) (A) (A) (A)
                 (A) (A) (A) (A) (A) (A) (A) (A) (A) (A) (A) (A)
                 (A) (A) (A) (A) (A) (A) (A) (A) (A) (A) (A) (A)
                 (A) (A) (A) (A) (A) (A) (A) (A) (A) (A) (A) (A)
       Virtual   (A) (A) (A) (A) (A) (A) (A) (A) (A) (A) (A) (A)
                 (A) (A) (A) (A) (A) (A) (A) (A) (A) (A) (A) (A)
                 (A) (A) (A) (A) (A) (A) (A) (A) (A) (A) (A) (A)
                 (A) (A) (A) (A) (A) (A) (A) (A) (A) (A) (A) (A)
                 (A) (A) (A) (A) (A) (A) (A) (A) (A) (A) (A) (A)
                 (A) (A) (A) (A) (A) (A) (A) (A) (A) (A) (A) (A)
                 (A) (A) (A) (A) (A) (A) (A) (A) (A) (A) (A) (A)
                 (A) (A) (A) (A) (A) (A) (A) (A) (A) (A) (A) (A)
                 (A) (A) (A) (A) (A) (A) (A) (A) (A) (A) (A) (A)
                 (A) (A) (A) (A) (A) (A) (A) (A) (A) (A) (A) (A)
                 (A) (A) (A) (A) (A) (A) (A) (A) (A) (A) (A) (A)
                 (A) (A) (A) (A) (A) (A) (A) (A) (A) (A) (A) (A)
                 (A) (A) (A) (A) (A) (A) (A) (A) (A) (A) (A) (A)
                 (A) (A) (A) (A) (A) (A) (A) (A) (A) (A) (A) (A)
                 (A) (A) (A) (A) (A) (A) (A) (A) (A) (A) (A) (A)
                 (A) (A) (A) (A) (A) (A) (A) (A) (A) (A) (A) (A)
                 (A) (A) (A) (A) (A) (A) (A) (A) (A) (A) (A) (A)
                 (A) (A) (A) (A) (A) (A) (A) (A) (A) (A) (A) (A)
                 (A) (A) (A) (A) (A) (A) (A) (A) (A) (A) (A) (A)
                 (A) (A) (A) (A) (A) (A) (A) (A) (A) (A) (A) (A)
                 (A) (A) (A) (A) (A) (A) (A) (A) (A) (A) (A) (A)
                 (A) (A) (A) (A) (A) (A) (A) (A) (A) (A) (A) (A)
                 (A) (A) (A) (A) (A) (A) (A) (A) (A) (A) (A) (A)
                 (A) (A) (A) (A) (A) (A) (A) (A) (A) (A) (A) (A)
                 (A) (A) (A) (A) (A) (A) (A) (A) (A) (A) (A) (A)
                 (A) (A) (A) (A) (A) (A) (A) (A) (A) (A) (A) (A)
                 (A) (A) (A) (A) (A) (A) (A) (A) (A) (A) (A) (A)
                 (A) (A) (A) (A) (A) (A) (A) (A) (A) (A) (A) (A)
                 (A) (A) (A) (A) (A) (A)
 Beta  Orbitals:
       Occupied  (A) (A) (A) (A) (A) (A) (A) (A) (A) (A) (A) (A)
                 (A) (A) (A) (A) (A) (A) (A) (A) (A) (A) (A) (A)
                 (A) (A) (A) (A) (A) (A) (A) (A) (A) (A) (A) (A)
                 (A) (A) (A) (A) (A) (A) (A) (A) (A) (A) (A) (A)
                 (A) (A) (A) (A) (A) (A) (A) (A) (A) (A) (A) (A)
       Virtual   (A) (A) (A) (A) (A) (A) (A) (A) (A) (A) (A) (A)
                 (A) (A) (A) (A) (A) (A) (A) (A) (A) (A) (A) (A)
                 (A) (A) (A) (A) (A) (A) (A) (A) (A) (A) (A) (A)
                 (A) (A) (A) (A) (A) (A) (A) (A) (A) (A) (A) (A)
                 (A) (A) (A) (A) (A) (A) (A) (A) (A) (A) (A) (A)
                 (A) (A) (A) (A) (A) (A) (A) (A) (A) (A) (A) (A)
                 (A) (A) (A) (A) (A) (A) (A) (A) (A) (A) (A) (A)
                 (A) (A) (A) (A) (A) (A) (A) (A) (A) (A) (A) (A)
                 (A) (A) (A) (A) (A) (A) (A) (A) (A) (A) (A) (A)
                 (A) (A) (A) (A) (A) (A) (A) (A) (A) (A) (A) (A)
                 (A) (A) (A) (A) (A) (A) (A) (A) (A) (A) (A) (A)
                 (A) (A) (A) (A) (A) (A) (A) (A) (A) (A) (A) (A)
                 (A) (A) (A) (A) (A) (A) (A) (A) (A) (A) (A) (A)
                 (A) (A) (A) (A) (A) (A) (A) (A) (A) (A) (A) (A)
                 (A) (A) (A) (A) (A) (A) (A) (A) (A) (A) (A) (A)
                 (A) (A) (A) (A) (A) (A) (A) (A) (A) (A) (A) (A)
                 (A) (A) (A) (A) (A) (A) (A) (A) (A) (A) (A) (A)
                 (A) (A) (A) (A) (A) (A) (A) (A) (A) (A) (A) (A)
                 (A) (A) (A) (A) (A) (A) (A) (A) (A) (A) (A) (A)
                 (A) (A) (A) (A) (A) (A) (A) (A) (A) (A) (A) (A)
                 (A) (A) (A) (A) (A) (A) (A) (A) (A) (A) (A) (A)
                 (A) (A) (A) (A) (A) (A) (A) (A) (A) (A) (A) (A)
                 (A) (A) (A) (A) (A) (A) (A) (A) (A) (A) (A) (A)
                 (A) (A) (A) (A) (A) (A) (A) (A) (A) (A) (A) (A)
                 (A) (A) (A) (A) (A) (A) (A) (A) (A) (A) (A) (A)
                 (A) (A) (A) (A) (A) (A) (A) (A) (A) (A) (A) (A)
                 (A) (A) (A) (A) (A) (A) (A) (A) (A) (A) (A) (A)
                 (A) (A) (A) (A) (A) (A) (A) (A) (A) (A) (A) (A)
                 (A) (A) (A) (A) (A) (A)
 The electronic state is 1-A.
 Alpha  occ. eigenvalues --  -14.46478 -14.46436 -10.36353 -10.33356 -10.33072
 Alpha  occ. eigenvalues --  -10.32116 -10.31363 -10.31145 -10.30705 -10.30689
 Alpha  occ. eigenvalues --  -10.30661 -10.30650 -10.30630 -10.30559 -10.30540
 Alpha  occ. eigenvalues --  -10.30474 -10.30339  -1.08923  -0.98874  -0.96504
 Alpha  occ. eigenvalues --   -0.94544  -0.87151  -0.84875  -0.84242  -0.83482
 Alpha  occ. eigenvalues --   -0.81030  -0.76138  -0.73419  -0.70494  -0.68441
 Alpha  occ. eigenvalues --   -0.67560  -0.66571  -0.60726  -0.59744  -0.58061
 Alpha  occ. eigenvalues --   -0.57622  -0.55922  -0.53441  -0.53308  -0.52161
 Alpha  occ. eigenvalues --   -0.51586  -0.51350  -0.51067  -0.50577  -0.48888
 Alpha  occ. eigenvalues --   -0.47626  -0.46771  -0.46446  -0.45208  -0.44813
 Alpha  occ. eigenvalues --   -0.43681  -0.42765  -0.41830  -0.41710  -0.36491
 Alpha  occ. eigenvalues --   -0.34744  -0.33248  -0.32609  -0.30414  -0.28583
 Alpha virt. eigenvalues --    0.04451   0.05251   0.05438   0.06371   0.06950
 Alpha virt. eigenvalues --    0.07899   0.08364   0.08768   0.08969   0.09643
 Alpha virt. eigenvalues --    0.10348   0.10647   0.10834   0.11053   0.11382
 Alpha virt. eigenvalues --    0.11934   0.13112   0.13420   0.13609   0.14229
 Alpha virt. eigenvalues --    0.14557   0.15278   0.15804   0.16637   0.17028
 Alpha virt. eigenvalues --    0.17381   0.17707   0.18518   0.18713   0.19717
 Alpha virt. eigenvalues --    0.19894   0.19973   0.20744   0.20837   0.21032
 Alpha virt. eigenvalues --    0.21309   0.21858   0.22221   0.22790   0.23237
 Alpha virt. eigenvalues --    0.23362   0.23671   0.23979   0.24110   0.24868
 Alpha virt. eigenvalues --    0.25152   0.25545   0.25756   0.25928   0.26371
 Alpha virt. eigenvalues --    0.26796   0.27207   0.27494   0.27865   0.28087
 Alpha virt. eigenvalues --    0.28332   0.29062   0.29608   0.29673   0.29873
 Alpha virt. eigenvalues --    0.30374   0.30696   0.30918   0.31090   0.31618
 Alpha virt. eigenvalues --    0.32328   0.32697   0.32831   0.33570   0.34030
 Alpha virt. eigenvalues --    0.34242   0.34411   0.34759   0.35440   0.35781
 Alpha virt. eigenvalues --    0.36137   0.36772   0.37139   0.37537   0.37769
 Alpha virt. eigenvalues --    0.38520   0.39770   0.39926   0.40112   0.41000
 Alpha virt. eigenvalues --    0.41566   0.41880   0.42963   0.44063   0.44152
 Alpha virt. eigenvalues --    0.45450   0.45751   0.46058   0.46458   0.47298
 Alpha virt. eigenvalues --    0.48502   0.49350   0.50490   0.52450   0.53182
 Alpha virt. eigenvalues --    0.53693   0.53998   0.54855   0.59726   0.66797
 Alpha virt. eigenvalues --    0.67842   0.70360   0.72224   0.72966   0.74088
 Alpha virt. eigenvalues --    0.76257   0.77156   0.77538   0.78461   0.79059
 Alpha virt. eigenvalues --    0.79788   0.80156   0.81571   0.82216   0.82298
 Alpha virt. eigenvalues --    0.83120   0.83659   0.84208   0.84904   0.85170
 Alpha virt. eigenvalues --    0.85745   0.86595   0.87477   0.88848   0.89694
 Alpha virt. eigenvalues --    0.90420   0.91885   0.92376   0.93288   0.94626
 Alpha virt. eigenvalues --    0.95327   0.96052   0.97679   0.98022   0.99558
 Alpha virt. eigenvalues --    1.00625   1.01376   1.02357   1.02730   1.03655
 Alpha virt. eigenvalues --    1.04219   1.05032   1.06386   1.07997   1.08881
 Alpha virt. eigenvalues --    1.09633   1.09885   1.11003   1.11413   1.12359
 Alpha virt. eigenvalues --    1.12816   1.14713   1.15463   1.17063   1.19222
 Alpha virt. eigenvalues --    1.19611   1.19949   1.21455   1.22130   1.23637
 Alpha virt. eigenvalues --    1.24016   1.24483   1.25446   1.26021   1.26466
 Alpha virt. eigenvalues --    1.27875   1.29798   1.31599   1.32217   1.33027
 Alpha virt. eigenvalues --    1.35529   1.36463   1.37294   1.38127   1.39380
 Alpha virt. eigenvalues --    1.41709   1.43330   1.43744   1.45053   1.47399
 Alpha virt. eigenvalues --    1.49180   1.49551   1.50029   1.50264   1.50556
 Alpha virt. eigenvalues --    1.51502   1.52357   1.53623   1.54389   1.57024
 Alpha virt. eigenvalues --    1.60468   1.62175   1.63239   1.67097   1.69425
 Alpha virt. eigenvalues --    1.72719   1.77751   1.79884   1.83670   1.87575
 Alpha virt. eigenvalues --    1.88397   1.90196   1.92591   1.93180   1.93886
 Alpha virt. eigenvalues --    1.94941   1.95769   1.96038   1.99685   2.00213
 Alpha virt. eigenvalues --    2.01005   2.01123   2.02371   2.03565   2.05181
 Alpha virt. eigenvalues --    2.05662   2.06734   2.07486   2.08944   2.09247
 Alpha virt. eigenvalues --    2.09734   2.10307   2.10986   2.11664   2.14165
 Alpha virt. eigenvalues --    2.14615   2.15254   2.16772   2.16994   2.18161
 Alpha virt. eigenvalues --    2.18739   2.20936   2.22264   2.24677   2.25712
 Alpha virt. eigenvalues --    2.27482   2.29435   2.29613   2.32740   2.35839
 Alpha virt. eigenvalues --    2.36991   2.37968   2.39776   2.39899   2.40833
 Alpha virt. eigenvalues --    2.41372   2.44360   2.47640   2.48180   2.49086
 Alpha virt. eigenvalues --    2.49095   2.49449   2.50975   2.53385   2.55404
 Alpha virt. eigenvalues --    2.56596   2.56864   2.57950   2.59423   2.60263
 Alpha virt. eigenvalues --    2.62624   2.62878   2.64391   2.64948   2.65232
 Alpha virt. eigenvalues --    2.66038   2.66609   2.68231   2.69409   2.70015
 Alpha virt. eigenvalues --    2.70540   2.72167   2.72931   2.73966   2.75609
 Alpha virt. eigenvalues --    2.77073   2.77785   2.81011   2.82452   2.83441
 Alpha virt. eigenvalues --    2.85022   2.85900   2.87037   2.88084   2.89871
 Alpha virt. eigenvalues --    2.91013   2.92805   2.94370   2.97661   2.99942
 Alpha virt. eigenvalues --    3.01525   3.03371   3.03564   3.06417   3.06929
 Alpha virt. eigenvalues --    3.11130   3.17538   3.19452   3.22774   3.23947
 Alpha virt. eigenvalues --    3.28712   3.32144   3.37215   3.37574   3.38473
 Alpha virt. eigenvalues --    3.39561   3.40003   3.44638   3.46365   3.48717
 Alpha virt. eigenvalues --    3.55250   3.58121   3.58777   3.59196   3.59861
 Alpha virt. eigenvalues --    3.61315   3.61566   3.64378   3.95574   3.99474
 Alpha virt. eigenvalues --    4.38624   4.41389   4.42375   4.46562   4.47825
 Alpha virt. eigenvalues --    4.52062   4.55293   4.59390   4.62100   4.64532
 Alpha virt. eigenvalues --    4.65043   4.72436   4.75174   4.78568   4.86106
 Alpha virt. eigenvalues --    4.98352   5.00354
  Beta  occ. eigenvalues --  -14.46478 -14.46436 -10.36353 -10.33356 -10.33072
  Beta  occ. eigenvalues --  -10.32116 -10.31363 -10.31145 -10.30705 -10.30689
  Beta  occ. eigenvalues --  -10.30661 -10.30650 -10.30630 -10.30559 -10.30540
  Beta  occ. eigenvalues --  -10.30474 -10.30339  -1.08923  -0.98874  -0.96504
  Beta  occ. eigenvalues --   -0.94544  -0.87151  -0.84875  -0.84242  -0.83482
  Beta  occ. eigenvalues --   -0.81030  -0.76138  -0.73419  -0.70494  -0.68441
  Beta  occ. eigenvalues --   -0.67560  -0.66571  -0.60726  -0.59744  -0.58061
  Beta  occ. eigenvalues --   -0.57622  -0.55922  -0.53441  -0.53308  -0.52161
  Beta  occ. eigenvalues --   -0.51586  -0.51350  -0.51067  -0.50577  -0.48888
  Beta  occ. eigenvalues --   -0.47626  -0.46771  -0.46446  -0.45208  -0.44813
  Beta  occ. eigenvalues --   -0.43681  -0.42765  -0.41830  -0.41710  -0.36491
  Beta  occ. eigenvalues --   -0.34744  -0.33248  -0.32609  -0.30414  -0.28583
  Beta virt. eigenvalues --    0.04451   0.05251   0.05438   0.06371   0.06950
  Beta virt. eigenvalues --    0.07899   0.08364   0.08768   0.08969   0.09643
  Beta virt. eigenvalues --    0.10348   0.10647   0.10834   0.11053   0.11382
  Beta virt. eigenvalues --    0.11934   0.13112   0.13420   0.13609   0.14229
  Beta virt. eigenvalues --    0.14557   0.15278   0.15804   0.16637   0.17028
  Beta virt. eigenvalues --    0.17381   0.17707   0.18518   0.18713   0.19717
  Beta virt. eigenvalues --    0.19894   0.19973   0.20744   0.20837   0.21032
  Beta virt. eigenvalues --    0.21309   0.21858   0.22221   0.22790   0.23237
  Beta virt. eigenvalues --    0.23362   0.23671   0.23979   0.24110   0.24868
  Beta virt. eigenvalues --    0.25152   0.25545   0.25756   0.25928   0.26371
  Beta virt. eigenvalues --    0.26796   0.27207   0.27494   0.27865   0.28087
  Beta virt. eigenvalues --    0.28332   0.29062   0.29608   0.29673   0.29873
  Beta virt. eigenvalues --    0.30374   0.30696   0.30918   0.31090   0.31618
  Beta virt. eigenvalues --    0.32328   0.32697   0.32831   0.33570   0.34030
  Beta virt. eigenvalues --    0.34242   0.34411   0.34759   0.35440   0.35781
  Beta virt. eigenvalues --    0.36137   0.36772   0.37139   0.37537   0.37769
  Beta virt. eigenvalues --    0.38520   0.39770   0.39926   0.40112   0.41000
  Beta virt. eigenvalues --    0.41566   0.41880   0.42963   0.44063   0.44152
  Beta virt. eigenvalues --    0.45450   0.45751   0.46058   0.46458   0.47298
  Beta virt. eigenvalues --    0.48502   0.49350   0.50490   0.52450   0.53182
  Beta virt. eigenvalues --    0.53693   0.53998   0.54855   0.59726   0.66797
  Beta virt. eigenvalues --    0.67842   0.70360   0.72224   0.72966   0.74088
  Beta virt. eigenvalues --    0.76257   0.77156   0.77538   0.78461   0.79059
  Beta virt. eigenvalues --    0.79788   0.80156   0.81571   0.82216   0.82298
  Beta virt. eigenvalues --    0.83120   0.83659   0.84208   0.84904   0.85170
  Beta virt. eigenvalues --    0.85745   0.86595   0.87477   0.88848   0.89694
  Beta virt. eigenvalues --    0.90420   0.91885   0.92376   0.93288   0.94626
  Beta virt. eigenvalues --    0.95327   0.96052   0.97679   0.98022   0.99558
  Beta virt. eigenvalues --    1.00625   1.01376   1.02357   1.02730   1.03655
  Beta virt. eigenvalues --    1.04219   1.05032   1.06386   1.07997   1.08881
  Beta virt. eigenvalues --    1.09633   1.09885   1.11003   1.11413   1.12359
  Beta virt. eigenvalues --    1.12816   1.14713   1.15463   1.17063   1.19222
  Beta virt. eigenvalues --    1.19611   1.19949   1.21455   1.22130   1.23637
  Beta virt. eigenvalues --    1.24016   1.24483   1.25446   1.26021   1.26466
  Beta virt. eigenvalues --    1.27875   1.29798   1.31599   1.32217   1.33027
  Beta virt. eigenvalues --    1.35529   1.36463   1.37294   1.38127   1.39380
  Beta virt. eigenvalues --    1.41709   1.43330   1.43744   1.45053   1.47399
  Beta virt. eigenvalues --    1.49180   1.49551   1.50029   1.50264   1.50556
  Beta virt. eigenvalues --    1.51502   1.52357   1.53623   1.54389   1.57024
  Beta virt. eigenvalues --    1.60468   1.62175   1.63239   1.67097   1.69425
  Beta virt. eigenvalues --    1.72719   1.77751   1.79884   1.83670   1.87575
  Beta virt. eigenvalues --    1.88397   1.90196   1.92591   1.93180   1.93886
  Beta virt. eigenvalues --    1.94941   1.95769   1.96038   1.99685   2.00213
  Beta virt. eigenvalues --    2.01005   2.01123   2.02371   2.03565   2.05181
  Beta virt. eigenvalues --    2.05662   2.06734   2.07486   2.08944   2.09247
  Beta virt. eigenvalues --    2.09734   2.10307   2.10986   2.11664   2.14165
  Beta virt. eigenvalues --    2.14615   2.15254   2.16772   2.16994   2.18161
  Beta virt. eigenvalues --    2.18739   2.20936   2.22264   2.24677   2.25712
  Beta virt. eigenvalues --    2.27482   2.29435   2.29613   2.32740   2.35839
  Beta virt. eigenvalues --    2.36991   2.37968   2.39776   2.39899   2.40833
  Beta virt. eigenvalues --    2.41372   2.44360   2.47640   2.48180   2.49086
  Beta virt. eigenvalues --    2.49095   2.49449   2.50975   2.53385   2.55404
  Beta virt. eigenvalues --    2.56596   2.56864   2.57950   2.59423   2.60263
  Beta virt. eigenvalues --    2.62624   2.62878   2.64391   2.64948   2.65232
  Beta virt. eigenvalues --    2.66038   2.66609   2.68231   2.69409   2.70015
  Beta virt. eigenvalues --    2.70540   2.72167   2.72931   2.73966   2.75609
  Beta virt. eigenvalues --    2.77073   2.77785   2.81011   2.82452   2.83441
  Beta virt. eigenvalues --    2.85022   2.85900   2.87037   2.88084   2.89871
  Beta virt. eigenvalues --    2.91013   2.92805   2.94370   2.97661   2.99942
  Beta virt. eigenvalues --    3.01525   3.03371   3.03564   3.06417   3.06929
  Beta virt. eigenvalues --    3.11130   3.17538   3.19452   3.22774   3.23947
  Beta virt. eigenvalues --    3.28712   3.32144   3.37215   3.37574   3.38473
  Beta virt. eigenvalues --    3.39561   3.40003   3.44638   3.46365   3.48717
  Beta virt. eigenvalues --    3.55250   3.58121   3.58777   3.59196   3.59861
  Beta virt. eigenvalues --    3.61315   3.61566   3.64378   3.95574   3.99474
  Beta virt. eigenvalues --    4.38624   4.41389   4.42375   4.46562   4.47825
  Beta virt. eigenvalues --    4.52062   4.55293   4.59390   4.62100   4.64532
  Beta virt. eigenvalues --    4.65043   4.72436   4.75174   4.78568   4.86106
  Beta virt. eigenvalues --    4.98352   5.00354
          Condensed to atoms (all electrons):
               1          2          3          4          5          6
     1  C   18.625039  -0.577857  -0.116371   0.037228  -0.916763  -0.422484
     2  N   -0.577857   7.715450  -0.894955   0.827223  -0.393237  -0.309548
     3  C   -0.116371  -0.894955  18.421488  -5.373495   0.959099   0.661255
     4  C    0.037228   0.827223  -5.373495  14.970334  -0.948076  -3.826762
     5  N   -0.916763  -0.393237   0.959099  -0.948076   7.954336  -0.050988
     6  C   -0.422484  -0.309548   0.661255  -3.826762  -0.050988   9.515929
     7  C   -0.138607   0.133773  -1.922218   0.982436  -0.118743   0.205632
     8  C   -0.006529  -0.093200   1.175433  -1.180717   0.124247   0.332573
     9  C   -0.494581   0.243316  -7.431385   2.409250  -0.696310   0.780842
    10  C  -11.237659   0.341153   1.879287  -0.978876   0.976154  -0.462225
    11  C    0.690837  -0.194527   0.932555  -1.145806   0.401899   0.446779
    12  C   -1.495014  -0.020384  -0.032439  -0.218478   0.170916  -0.076525
    13  C    0.150542  -0.002202  -0.005594   0.015334  -0.018102   0.005871
    14  C   -1.387813   0.104183  -0.158794  -0.052734   0.042706  -0.023836
    15  C    3.689304   0.076197  -1.610085   1.003889  -0.602325  -0.358163
    16  C   -0.403150   0.068910   0.002738  -0.263195   0.184378   0.051016
    17  C   -0.447869   0.285795  -0.254982  -0.289993   0.229647  -0.215767
    18  H    0.116587  -0.036571   0.033547  -0.035524  -0.015608  -0.021624
    19  H    0.000276  -0.000089   0.014625   0.073538  -0.001023   0.250986
    20  H    0.001797  -0.000038   0.007126   0.012864   0.000366   0.009393
    21  H    0.001289   0.000335   0.008557  -0.000372  -0.000017   0.000171
    22  H   -0.002720   0.001386   0.020254   0.039206  -0.001315  -0.028519
    23  H    0.030816   0.001537   0.009376  -0.015333   0.002627   0.007651
    24  H   -0.007996  -0.000032  -0.000146   0.000700   0.000727  -0.000049
    25  H    0.001868  -0.000040  -0.000042  -0.000032  -0.000040   0.000001
    26  H   -0.003364   0.000651   0.000779   0.000051  -0.000025   0.000019
    27  H   -0.013541   0.016952  -0.002773   0.005246   0.004605  -0.001101
    28  H   -0.069074  -0.005343   0.037087  -0.026576  -0.043534  -0.004120
    29  H    0.049966   0.013069  -0.051643   0.102757  -0.072643  -0.024953
    30  H    0.048594  -0.003867  -0.029406  -0.057536  -0.086080   0.068357
    31  H   -0.020674  -0.046140   0.032460   0.035563  -0.015978   0.000691
    32  H    0.065700  -0.058869  -0.083643  -0.009604  -0.010779   0.012401
    33  H   -0.025390  -0.081882   0.109315  -0.070542   0.053943  -0.013554
               7          8          9         10         11         12
     1  C   -0.138607  -0.006529  -0.494581 -11.237659   0.690837  -1.495014
     2  N    0.133773  -0.093200   0.243316   0.341153  -0.194527  -0.020384
     3  C   -1.922218   1.175433  -7.431385   1.879287   0.932555  -0.032439
     4  C    0.982436  -1.180717   2.409250  -0.978876  -1.145806  -0.218478
     5  N   -0.118743   0.124247  -0.696310   0.976154   0.401899   0.170916
     6  C    0.205632   0.332573   0.780842  -0.462225   0.446779  -0.076525
     7  C    5.932156  -0.053563   0.994126  -0.110631  -0.043071  -0.003810
     8  C   -0.053563   5.665128  -0.209713   0.046083   0.049839   0.002302
     9  C    0.994126  -0.209713  11.523378  -1.133198  -0.665106  -0.039540
    10  C   -0.110631   0.046083  -1.133198  22.412412  -2.525034   1.498037
    11  C   -0.043071   0.049839  -0.665106  -2.525034  19.016555  -2.729399
    12  C   -0.003810   0.002302  -0.039540   1.498037  -2.729399   7.907534
    13  C    0.000293   0.000107   0.008208  -0.641474   0.173619   0.392307
    14  C    0.002438  -0.001647  -0.036917   1.040376   0.700784   0.319731
    15  C    0.060910  -0.037773   0.943853  -5.571268  -9.169474   0.151110
    16  C   -0.010105   0.022075  -0.080093   0.081748   0.296319  -0.032032
    17  C    0.003397   0.046793  -0.125071   0.199580  -0.239224   0.095609
    18  H   -0.001526   0.001390  -0.016495   0.212264  -0.035859   0.039447
    19  H    0.003522   0.005148  -0.025235   0.000557   0.000821  -0.000067
    20  H    0.283860   0.019955  -0.005940  -0.000143   0.000055   0.000004
    21  H    0.013316   0.298454   0.008676  -0.000330  -0.000015  -0.000001
    22  H    0.007864   0.000802   0.288645   0.000580  -0.000208  -0.000024
    23  H    0.000494   0.000091   0.000102   0.046004   0.218302  -0.033579
    24  H   -0.000001   0.000000   0.000009   0.023417   0.013070   0.281262
    25  H   -0.000000   0.000000   0.000001   0.003519  -0.004594   0.028018
    26  H    0.000000   0.000000   0.000021   0.015498   0.008103  -0.008540
    27  H    0.000124  -0.000054  -0.000599   0.149220   0.011394   0.008640
    28  H   -0.005745   0.001545  -0.004901   0.108314  -0.038229  -0.007174
    29  H    0.003984  -0.003349   0.004268  -0.067667   0.046560  -0.021644
    30  H    0.007674   0.000722   0.017509  -0.035201  -0.002818  -0.000811
    31  H    0.000688  -0.003674   0.004866   0.057120  -0.013793  -0.002389
    32  H    0.001238   0.006594   0.072119  -0.069478  -0.008335  -0.001619
    33  H   -0.005513   0.005123  -0.092286   0.057355   0.044116   0.005982
              13         14         15         16         17         18
     1  C    0.150542  -1.387813   3.689304  -0.403150  -0.447869   0.116587
     2  N   -0.002202   0.104183   0.076197   0.068910   0.285795  -0.036571
     3  C   -0.005594  -0.158794  -1.610085   0.002738  -0.254982   0.033547
     4  C    0.015334  -0.052734   1.003889  -0.263195  -0.289993  -0.035524
     5  N   -0.018102   0.042706  -0.602325   0.184378   0.229647  -0.015608
     6  C    0.005871  -0.023836  -0.358163   0.051016  -0.215767  -0.021624
     7  C    0.000293   0.002438   0.060910  -0.010105   0.003397  -0.001526
     8  C    0.000107  -0.001647  -0.037773   0.022075   0.046793   0.001390
     9  C    0.008208  -0.036917   0.943853  -0.080093  -0.125071  -0.016495
    10  C   -0.641474   1.040376  -5.571268   0.081748   0.199580   0.212264
    11  C    0.173619   0.700784  -9.169474   0.296319  -0.239224  -0.035859
    12  C    0.392307   0.319731   0.151110  -0.032032   0.095609   0.039447
    13  C    5.164067   0.516333   0.120757   0.004969  -0.009362  -0.003282
    14  C    0.516333   7.538237  -2.761364   0.043009   0.024110   0.030006
    15  C    0.120757  -2.761364  19.737705  -0.227710   0.274510  -0.030448
    16  C    0.004969   0.043009  -0.227710   5.310187  -0.046181   0.011166
    17  C   -0.009362   0.024110   0.274510  -0.046181   5.474049   0.021975
    18  H   -0.003282   0.030006  -0.030448   0.011166   0.021975   0.526040
    19  H   -0.000001   0.000005  -0.000339   0.002439  -0.000052  -0.000009
    20  H   -0.000000  -0.000000  -0.000004  -0.000082   0.000038   0.000000
    21  H    0.000000   0.000005   0.000103   0.000057  -0.000195  -0.000000
    22  H    0.000003  -0.000037   0.000248   0.000117  -0.000526  -0.000006
    23  H   -0.002769  -0.003469   0.045036   0.011168  -0.002179   0.000088
    24  H    0.016440  -0.005396   0.005819  -0.000176   0.000083   0.000000
    25  H    0.287334   0.022941  -0.011103  -0.000144  -0.000001   0.000000
    26  H    0.019099   0.275063   0.020629   0.000104  -0.000599  -0.000000
    27  H   -0.021957  -0.045211   0.202490  -0.000305   0.000423   0.000259
    28  H   -0.000704   0.000451   0.008364   0.402115   0.003499   0.000096
    29  H    0.000804   0.001629  -0.007350   0.396352  -0.014208  -0.000257
    30  H    0.000296  -0.000972   0.001013   0.437985  -0.008344  -0.000153
    31  H   -0.004281  -0.035167  -0.001507   0.001393   0.369506   0.000147
    32  H    0.000717  -0.000888   0.034834  -0.002499   0.411835  -0.000099
    33  H   -0.000516   0.001069  -0.064580  -0.007264   0.431880  -0.000337
              19         20         21         22         23         24
     1  C    0.000276   0.001797   0.001289  -0.002720   0.030816  -0.007996
     2  N   -0.000089  -0.000038   0.000335   0.001386   0.001537  -0.000032
     3  C    0.014625   0.007126   0.008557   0.020254   0.009376  -0.000146
     4  C    0.073538   0.012864  -0.000372   0.039206  -0.015333   0.000700
     5  N   -0.001023   0.000366  -0.000017  -0.001315   0.002627   0.000727
     6  C    0.250986   0.009393   0.000171  -0.028519   0.007651  -0.000049
     7  C    0.003522   0.283860   0.013316   0.007864   0.000494  -0.000001
     8  C    0.005148   0.019955   0.298454   0.000802   0.000091   0.000000
     9  C   -0.025235  -0.005940   0.008676   0.288645   0.000102   0.000009
    10  C    0.000557  -0.000143  -0.000330   0.000580   0.046004   0.023417
    11  C    0.000821   0.000055  -0.000015  -0.000208   0.218302   0.013070
    12  C   -0.000067   0.000004  -0.000001  -0.000024  -0.033579   0.281262
    13  C   -0.000001  -0.000000   0.000000   0.000003  -0.002769   0.016440
    14  C    0.000005  -0.000000   0.000005  -0.000037  -0.003469  -0.005396
    15  C   -0.000339  -0.000004   0.000103   0.000248   0.045036   0.005819
    16  C    0.002439  -0.000082   0.000057   0.000117   0.011168  -0.000176
    17  C   -0.000052   0.000038  -0.000195  -0.000526  -0.002179   0.000083
    18  H   -0.000009   0.000000  -0.000000  -0.000006   0.000088   0.000000
    19  H    0.482452  -0.003039  -0.000108   0.000011  -0.000000   0.000000
    20  H   -0.003039   0.488721  -0.003478  -0.000108  -0.000000  -0.000000
    21  H   -0.000108  -0.003478   0.488285  -0.003039   0.000000   0.000000
    22  H    0.000011  -0.000108  -0.003039   0.481335   0.000000  -0.000000
    23  H   -0.000000  -0.000000   0.000000   0.000000   0.513735  -0.004236
    24  H    0.000000  -0.000000   0.000000  -0.000000  -0.004236   0.488002
    25  H   -0.000000   0.000000   0.000000  -0.000000  -0.000119  -0.003515
    26  H    0.000000   0.000000  -0.000000   0.000000   0.000012  -0.000116
    27  H    0.000000   0.000000  -0.000000   0.000000  -0.000123   0.000012
    28  H   -0.000155  -0.000000  -0.000000  -0.000000  -0.000048  -0.000002
    29  H   -0.000001  -0.000000  -0.000000   0.000000  -0.001097  -0.000005
    30  H    0.000615   0.000004   0.000000   0.000000   0.000291  -0.000000
    31  H   -0.000000  -0.000000  -0.000000  -0.000024   0.000000   0.000000
    32  H   -0.000000  -0.000000   0.000002  -0.000011   0.000000   0.000000
    33  H    0.000009   0.000000  -0.000000   0.000073  -0.000003   0.000000
              25         26         27         28         29         30
     1  C    0.001868  -0.003364  -0.013541  -0.069074   0.049966   0.048594
     2  N   -0.000040   0.000651   0.016952  -0.005343   0.013069  -0.003867
     3  C   -0.000042   0.000779  -0.002773   0.037087  -0.051643  -0.029406
     4  C   -0.000032   0.000051   0.005246  -0.026576   0.102757  -0.057536
     5  N   -0.000040  -0.000025   0.004605  -0.043534  -0.072643  -0.086080
     6  C    0.000001   0.000019  -0.001101  -0.004120  -0.024953   0.068357
     7  C   -0.000000   0.000000   0.000124  -0.005745   0.003984   0.007674
     8  C    0.000000   0.000000  -0.000054   0.001545  -0.003349   0.000722
     9  C    0.000001   0.000021  -0.000599  -0.004901   0.004268   0.017509
    10  C    0.003519   0.015498   0.149220   0.108314  -0.067667  -0.035201
    11  C   -0.004594   0.008103   0.011394  -0.038229   0.046560  -0.002818
    12  C    0.028018  -0.008540   0.008640  -0.007174  -0.021644  -0.000811
    13  C    0.287334   0.019099  -0.021957  -0.000704   0.000804   0.000296
    14  C    0.022941   0.275063  -0.045211   0.000451   0.001629  -0.000972
    15  C   -0.011103   0.020629   0.202490   0.008364  -0.007350   0.001013
    16  C   -0.000144   0.000104  -0.000305   0.402115   0.396352   0.437985
    17  C   -0.000001  -0.000599   0.000423   0.003499  -0.014208  -0.008344
    18  H    0.000000  -0.000000   0.000259   0.000096  -0.000257  -0.000153
    19  H   -0.000000   0.000000   0.000000  -0.000155  -0.000001   0.000615
    20  H    0.000000   0.000000   0.000000  -0.000000  -0.000000   0.000004
    21  H    0.000000  -0.000000  -0.000000  -0.000000  -0.000000   0.000000
    22  H   -0.000000   0.000000   0.000000  -0.000000   0.000000   0.000000
    23  H   -0.000119   0.000012  -0.000123  -0.000048  -0.001097   0.000291
    24  H   -0.003515  -0.000116   0.000012  -0.000002  -0.000005  -0.000000
    25  H    0.488379  -0.003526  -0.000115   0.000000   0.000000  -0.000000
    26  H   -0.003526   0.487830  -0.004087   0.000000  -0.000000   0.000000
    27  H   -0.000115  -0.004087   0.504657  -0.000000  -0.000004   0.000000
    28  H    0.000000   0.000000  -0.000000   0.541999  -0.038949  -0.026427
    29  H    0.000000  -0.000000  -0.000004  -0.038949   0.527033  -0.021308
    30  H   -0.000000   0.000000   0.000000  -0.026427  -0.021308   0.516997
    31  H   -0.000000  -0.000000   0.000887  -0.000002   0.000166   0.000009
    32  H   -0.000000   0.000000   0.000127  -0.000002   0.000118   0.000004
    33  H   -0.000000  -0.000000   0.000184   0.000142  -0.001623   0.000107
              31         32         33
     1  C   -0.020674   0.065700  -0.025390
     2  N   -0.046140  -0.058869  -0.081882
     3  C    0.032460  -0.083643   0.109315
     4  C    0.035563  -0.009604  -0.070542
     5  N   -0.015978  -0.010779   0.053943
     6  C    0.000691   0.012401  -0.013554
     7  C    0.000688   0.001238  -0.005513
     8  C   -0.003674   0.006594   0.005123
     9  C    0.004866   0.072119  -0.092286
    10  C    0.057120  -0.069478   0.057355
    11  C   -0.013793  -0.008335   0.044116
    12  C   -0.002389  -0.001619   0.005982
    13  C   -0.004281   0.000717  -0.000516
    14  C   -0.035167  -0.000888   0.001069
    15  C   -0.001507   0.034834  -0.064580
    16  C    0.001393  -0.002499  -0.007264
    17  C    0.369506   0.411835   0.431880
    18  H    0.000147  -0.000099  -0.000337
    19  H   -0.000000  -0.000000   0.000009
    20  H   -0.000000  -0.000000   0.000000
    21  H   -0.000000   0.000002  -0.000000
    22  H   -0.000024  -0.000011   0.000073
    23  H    0.000000   0.000000  -0.000003
    24  H    0.000000   0.000000   0.000000
    25  H   -0.000000  -0.000000  -0.000000
    26  H   -0.000000   0.000000  -0.000000
    27  H    0.000887   0.000127   0.000184
    28  H   -0.000002  -0.000002   0.000142
    29  H    0.000166   0.000118  -0.001623
    30  H    0.000009   0.000004   0.000107
    31  H    0.523642  -0.019350  -0.033259
    32  H   -0.019350   0.515800  -0.033732
    33  H   -0.033259  -0.033732   0.558869
          Atomic-Atomic Spin Densities.
               1          2          3          4          5          6
     1  C    0.000000  -0.000000   0.000000  -0.000000  -0.000000   0.000000
     2  N   -0.000000  -0.000000   0.000000  -0.000000   0.000000   0.000000
     3  C    0.000000   0.000000  -0.000000   0.000000  -0.000000  -0.000000
     4  C   -0.000000  -0.000000   0.000000  -0.000000   0.000000   0.000000
     5  N   -0.000000   0.000000  -0.000000   0.000000  -0.000000  -0.000000
     6  C    0.000000   0.000000  -0.000000   0.000000  -0.000000  -0.000000
     7  C   -0.000000  -0.000000   0.000000  -0.000000   0.000000   0.000000
     8  C    0.000000   0.000000  -0.000000   0.000000  -0.000000  -0.000000
     9  C   -0.000000  -0.000000   0.000000  -0.000000   0.000000   0.000000
    10  C   -0.000000   0.000000  -0.000000   0.000000   0.000000  -0.000000
    11  C   -0.000000   0.000000  -0.000000   0.000000  -0.000000  -0.000000
    12  C   -0.000000   0.000000  -0.000000   0.000000   0.000000  -0.000000
    13  C    0.000000  -0.000000   0.000000  -0.000000  -0.000000  -0.000000
    14  C   -0.000000   0.000000   0.000000  -0.000000   0.000000  -0.000000
    15  C    0.000000  -0.000000   0.000000  -0.000000   0.000000   0.000000
    16  C   -0.000000   0.000000  -0.000000   0.000000  -0.000000  -0.000000
    17  C   -0.000000  -0.000000   0.000000   0.000000   0.000000  -0.000000
    18  H   -0.000000   0.000000  -0.000000   0.000000   0.000000  -0.000000
    19  H    0.000000   0.000000   0.000000   0.000000   0.000000  -0.000000
    20  H   -0.000000   0.000000  -0.000000   0.000000  -0.000000  -0.000000
    21  H   -0.000000  -0.000000   0.000000  -0.000000   0.000000   0.000000
    22  H    0.000000   0.000000   0.000000  -0.000000  -0.000000  -0.000000
    23  H    0.000000  -0.000000  -0.000000   0.000000   0.000000   0.000000
    24  H    0.000000  -0.000000  -0.000000  -0.000000  -0.000000  -0.000000
    25  H   -0.000000   0.000000   0.000000  -0.000000   0.000000  -0.000000
    26  H    0.000000  -0.000000  -0.000000   0.000000  -0.000000   0.000000
    27  H   -0.000000   0.000000  -0.000000   0.000000   0.000000  -0.000000
    28  H    0.000000   0.000000  -0.000000   0.000000  -0.000000  -0.000000
    29  H   -0.000000  -0.000000   0.000000  -0.000000   0.000000   0.000000
    30  H   -0.000000  -0.000000   0.000000  -0.000000   0.000000   0.000000
    31  H   -0.000000  -0.000000   0.000000  -0.000000   0.000000   0.000000
    32  H    0.000000  -0.000000   0.000000  -0.000000   0.000000   0.000000
    33  H   -0.000000   0.000000  -0.000000   0.000000  -0.000000  -0.000000
               7          8          9         10         11         12
     1  C   -0.000000   0.000000  -0.000000  -0.000000  -0.000000  -0.000000
     2  N   -0.000000   0.000000  -0.000000   0.000000   0.000000   0.000000
     3  C    0.000000  -0.000000   0.000000  -0.000000  -0.000000  -0.000000
     4  C   -0.000000   0.000000  -0.000000   0.000000   0.000000   0.000000
     5  N    0.000000  -0.000000   0.000000   0.000000  -0.000000   0.000000
     6  C    0.000000  -0.000000   0.000000  -0.000000  -0.000000  -0.000000
     7  C   -0.000000   0.000000  -0.000000   0.000000   0.000000   0.000000
     8  C    0.000000  -0.000000   0.000000  -0.000000  -0.000000  -0.000000
     9  C   -0.000000   0.000000  -0.000000   0.000000   0.000000   0.000000
    10  C    0.000000  -0.000000   0.000000  -0.000000   0.000000   0.000000
    11  C    0.000000  -0.000000   0.000000   0.000000  -0.000000   0.000000
    12  C    0.000000  -0.000000   0.000000   0.000000   0.000000  -0.000000
    13  C   -0.000000   0.000000   0.000000  -0.000000  -0.000000  -0.000000
    14  C    0.000000  -0.000000  -0.000000   0.000000  -0.000000   0.000000
    15  C   -0.000000   0.000000  -0.000000  -0.000000   0.000000  -0.000000
    16  C    0.000000  -0.000000   0.000000   0.000000  -0.000000   0.000000
    17  C    0.000000  -0.000000  -0.000000   0.000000   0.000000  -0.000000
    18  H    0.000000  -0.000000   0.000000   0.000000   0.000000   0.000000
    19  H   -0.000000   0.000000  -0.000000   0.000000  -0.000000   0.000000
    20  H    0.000000  -0.000000   0.000000   0.000000  -0.000000  -0.000000
    21  H   -0.000000   0.000000  -0.000000   0.000000   0.000000  -0.000000
    22  H    0.000000   0.000000  -0.000000  -0.000000  -0.000000   0.000000
    23  H    0.000000  -0.000000  -0.000000  -0.000000   0.000000  -0.000000
    24  H    0.000000  -0.000000   0.000000   0.000000  -0.000000   0.000000
    25  H   -0.000000   0.000000   0.000000   0.000000  -0.000000  -0.000000
    26  H    0.000000  -0.000000  -0.000000  -0.000000   0.000000  -0.000000
    27  H    0.000000  -0.000000   0.000000   0.000000  -0.000000   0.000000
    28  H    0.000000  -0.000000   0.000000  -0.000000  -0.000000  -0.000000
    29  H   -0.000000   0.000000  -0.000000   0.000000   0.000000   0.000000
    30  H   -0.000000   0.000000  -0.000000  -0.000000   0.000000  -0.000000
    31  H   -0.000000   0.000000  -0.000000   0.000000   0.000000   0.000000
    32  H   -0.000000   0.000000  -0.000000  -0.000000   0.000000  -0.000000
    33  H    0.000000  -0.000000   0.000000   0.000000  -0.000000  -0.000000
              13         14         15         16         17         18
     1  C    0.000000  -0.000000   0.000000  -0.000000  -0.000000  -0.000000
     2  N   -0.000000   0.000000  -0.000000   0.000000  -0.000000   0.000000
     3  C    0.000000   0.000000   0.000000  -0.000000   0.000000  -0.000000
     4  C   -0.000000  -0.000000  -0.000000   0.000000   0.000000   0.000000
     5  N   -0.000000   0.000000   0.000000  -0.000000   0.000000   0.000000
     6  C   -0.000000  -0.000000   0.000000  -0.000000  -0.000000  -0.000000
     7  C   -0.000000   0.000000  -0.000000   0.000000   0.000000   0.000000
     8  C    0.000000  -0.000000   0.000000  -0.000000  -0.000000  -0.000000
     9  C    0.000000  -0.000000  -0.000000   0.000000  -0.000000   0.000000
    10  C   -0.000000   0.000000  -0.000000   0.000000   0.000000   0.000000
    11  C   -0.000000  -0.000000   0.000000  -0.000000   0.000000   0.000000
    12  C   -0.000000   0.000000  -0.000000   0.000000  -0.000000   0.000000
    13  C   -0.000000  -0.000000   0.000000  -0.000000  -0.000000  -0.000000
    14  C   -0.000000   0.000000  -0.000000   0.000000   0.000000   0.000000
    15  C    0.000000  -0.000000  -0.000000   0.000000  -0.000000  -0.000000
    16  C   -0.000000   0.000000   0.000000  -0.000000   0.000000   0.000000
    17  C   -0.000000   0.000000  -0.000000   0.000000   0.000000   0.000000
    18  H   -0.000000   0.000000  -0.000000   0.000000   0.000000   0.000000
    19  H   -0.000000   0.000000   0.000000  -0.000000   0.000000   0.000000
    20  H    0.000000  -0.000000   0.000000  -0.000000   0.000000  -0.000000
    21  H    0.000000  -0.000000  -0.000000   0.000000  -0.000000   0.000000
    22  H   -0.000000   0.000000   0.000000  -0.000000   0.000000  -0.000000
    23  H    0.000000  -0.000000  -0.000000   0.000000  -0.000000  -0.000000
    24  H   -0.000000   0.000000   0.000000  -0.000000  -0.000000  -0.000000
    25  H    0.000000   0.000000   0.000000   0.000000   0.000000   0.000000
    26  H    0.000000  -0.000000   0.000000  -0.000000  -0.000000  -0.000000
    27  H   -0.000000   0.000000  -0.000000  -0.000000   0.000000   0.000000
    28  H   -0.000000   0.000000   0.000000  -0.000000   0.000000  -0.000000
    29  H   -0.000000   0.000000  -0.000000   0.000000  -0.000000   0.000000
    30  H    0.000000  -0.000000  -0.000000   0.000000  -0.000000   0.000000
[...]
 0009524,-0.00012045,-0.00010711,-0.00005117,-0.00008941,-0.00015652,0.
 00013777,-0.00040777,0.00080996,-0.00067803,0.00185762,-0.00060944,-0.
 00278180,-0.00031451,0.00004926,0.00003253,0.00019414,-0.00028328,0.00
 000536,0.00015216,0.00020031,0.00006754,-0.00023418,0.00005265,0.00005
 706,-0.00025370,-0.00020835,-0.00037563,0.00019803,-0.00009231,0.00038
 413,-0.00017326,-0.00004129,0.00008821,0.00003327,0.00015359,-0.000019
 60,0.00014951,0.00000996,-0.00001723,-0.00007443,-0.00011613,-0.000062
 82,0.09546984,-0.08804089,-0.01619305,0.00009486,0.00007349,0.00021646
 ,-0.00001777,0.00001451,0.00001972,0.00005509,0.00004145,-0.00010619,0
 .00000970,-0.00000703,0.00001135,0.00000392,0.00000713,-0.00001457,-0.
 00000452,0.00000147,-0.00003643,0.00065299,0.00045980,0.00074891,0.000
 02134,-0.00002037,0.00001842,0.00001690,0.00000739,-0.00000907,0.00001
 327,0.00000557,0.00000854,-0.00000337,0.00001769,0.00001500,-0.1039265
 4,0.08703189,0.00105757,-0.00003515,0.00175652,-0.00025835,-0.00055868
 ,-0.00026893,0.00166883,-0.00023964,-0.00046009,-0.00126981,-0.0017700
 6,-0.00558622,0.03476124,-0.01034610,-0.01044819,0.00005886,-0.0002420
 7,-0.00003150,0.00011853,-0.00013586,0.00020908,0.00029932,0.00000834,
 -0.00003381,-0.00030823,-0.00035900,0.00019618,-0.00039210,-0.00068147
 ,-0.00074224,-0.00199721,-0.00079710,-0.00136833,0.00002680,0.00029213
 ,0.00006207,0.00008440,-0.00002077,-0.00002378,-0.00000248,0.00009241,
 0.00000741,-0.00004914,0.00012525,0.00009284,0.03587819,-0.01450195,-0
 .05598616,-0.00005210,0.00014096,-0.00014772,0.00005568,0.00032848,0.0
 0012760,0.00001358,0.00015911,-0.00009982,0.00008060,-0.00001069,-0.00
 000852,0.00003095,-0.00000292,-0.00003079,0.00011256,-0.00008825,-0.00
 003737,-0.00147994,0.00090698,-0.00143212,0.00003477,-0.00002795,0.000
 01936,0.00003653,0.00003077,0.00001543,0.00000280,0.00001745,0.0000020
 1,0.00002814,0.00005830,0.00002206,-0.04529161,0.01835963,0.06827156,0
 .00009145,0.00044638,-0.00058566,-0.00025023,0.00001968,-0.00046376,-0
 .00088288,-0.00084691,0.00018331,-0.00043085,-0.00172065,0.00151987,0.
 00118633,-0.00324636,0.00350438,-0.00030846,0.00007302,-0.00041834,0.0
 0007746,-0.00022071,-0.00010521,0.00023933,0.00017570,0.00007845,-0.00
 040851,0.00004341,-0.00008096,0.00002259,0.00004264,0.00008408,0.00019
 482,0.00034132,-0.00003938,-0.00010343,-0.00012750,-0.00000306,-0.0000
 0121,0.00006045,0.00005685,0.00004036,-0.00005510,-0.00003202,-0.00004
 961,-0.00007742,0.00000995,-0.05567243,0.02616356,-0.01473967,0.000037
 68,0.00091381,-0.00012680,-0.00002246,0.00006670,-0.00002193,0.0000029
 1,0.00001788,0.00006020,0.00002001,-0.00000116,0.00001810,0.00001777,0
 .00000141,-0.00000994,0.00002857,-0.00004736,0.00003255,0.00014436,-0.
 00025042,0.00005075,-0.00000098,0.00000772,-0.00001514,-0.00000934,-0.
 00000704,-0.00000718,0.00000165,-0.00000248,-0.00000541,0.00000368,-0.
 00000403,0.00000464,-0.00130012,0.02601366,-0.01406578,0.05228097,-0.0
 0125681,0.00041346,-0.00073690,0.00046654,0.00149002,0.00129336,-0.000
 04663,0.00065991,0.00045665,0.00015960,0.00165019,-0.00106698,0.001007
 87,0.00885345,-0.00035295,-0.00002211,-0.00023341,0.00031502,-0.000012
 34,0.00009585,0.00012939,-0.00028499,-0.00006301,-0.00006090,0.0003046
 9,0.00002161,0.00005423,-0.00012671,0.00007134,0.00017109,0.00010174,-
 0.00009977,0.00003583,-0.00007494,-0.00001400,0.00001625,0.00002813,0.
 00007305,0.00001102,0.00009338,0.00002020,-0.00002808,-0.00000585,-0.0
 0004340,-0.00001755,0.02604528,-0.24405884,0.10597071,0.00008716,-0.00
 210080,-0.00014179,-0.00002842,0.00005757,0.00022099,-0.00005163,0.000
 04192,-0.00009541,-0.00003313,-0.00000613,0.00000070,-0.00002805,0.000
 00718,-0.00000433,-0.00005724,0.00004041,-0.00000359,-0.00010781,0.000
 13109,-0.00005248,0.00001272,-0.00000938,0.00000388,0.00001222,0.00000
 469,0.00000283,0.00001667,0.00000581,0.00000114,-0.00002145,0.00000445
 ,0.00000960,-0.00035017,-0.00875213,0.00437332,-0.03003475,0.26163187,
 0.00091834,0.00253240,0.00179277,-0.00051381,-0.00148949,0.00037416,0.
 00097284,-0.00049998,-0.00038957,-0.00634235,0.00306176,0.00136154,0.0
 0315119,0.02430217,-0.03299146,0.00124073,-0.00032062,0.00038178,-0.00
 013056,0.00016149,0.00010717,0.00040878,-0.00016963,-0.00011298,-0.000
 27723,0.00006205,-0.00003322,0.00002532,-0.00024145,-0.00029859,0.0000
 2054,-0.00005918,0.00006751,-0.00003356,0.00001106,-0.00003104,-0.0000
 4341,0.00003465,0.00001073,0.00001929,-0.00005946,-0.00002008,-0.00021
 633,0.00004447,0.00005561,-0.01476887,0.10474755,-0.10505463,0.0000775
 7,0.00011139,-0.00125039,-0.00037233,-0.00067483,-0.00020508,-0.000021
 68,0.00002535,0.00002704,0.00008367,-0.00000937,-0.00001138,0.00002478
 ,-0.00001114,-0.00001906,0.00003490,-0.00007037,0.00000877,0.00005562,
 -0.00001543,-0.00000855,-0.00001687,0.00000746,-0.00000002,-0.00000739
 ,-0.00000124,0.00000544,-0.00002374,-0.00000517,-0.00000243,0.00001565
 ,-0.00000474,0.00000501,-0.00006942,-0.00427628,0.00358820,0.01366657,
 -0.11744660,0.12496726,-0.00000052,0.00116110,0.00179615,-0.00007631,-
 0.00024776,-0.00032101,0.00044312,-0.00048992,-0.00030561,-0.00017816,
 0.00165933,0.00070155,0.00473668,0.00398552,0.00348484,-0.00066998,0.0
 0022533,0.00117209,0.00033060,-0.00046922,0.00005212,0.00031766,0.0004
 1655,0.00002623,-0.00055693,0.00004823,0.00012815,0.00001613,-0.000042
 85,-0.00014857,-0.00025969,0.00037390,-0.00040985,0.00018402,-0.000019
 83,-0.00011270,-0.00004872,-0.00017408,0.00001572,-0.00018023,0.000005
 91,0.00001946,0.00013277,0.00013181,0.00006368,-0.17611882,-0.12564943
 ,-0.06195269,0.00000861,0.00021447,0.00005292,0.00012267,0.00004060,0.
 00007223,-0.00020631,-0.00005472,-0.00000785,0.00004341,-0.00003376,0.
 00002445,0.00000320,0.00000919,-0.00003982,0.00000754,-0.00001799,0.00
 000908,-0.00007449,-0.00038158,0.00003281,-0.00001953,0.00002189,-0.00
 001462,-0.00002304,-0.00001696,0.00000600,-0.00001418,-0.00000690,-0.0
 0001227,0.00000705,-0.00002108,-0.00000257,-0.01636604,-0.02007820,-0.
 00911882,0.00382506,0.00435939,0.00181242,0.18458691,0.00102134,0.0017
 1528,0.00015702,0.00023265,0.00017573,0.00019813,-0.00009000,-0.000393
 83,0.00008673,-0.00097842,0.00043087,-0.00004003,-0.00064005,-0.001269
 06,-0.00362699,0.00007989,0.00006800,0.00013455,0.00021280,-0.00027431
 ,0.00013528,0.00010303,0.00021963,0.00000845,-0.00023468,0.00004199,0.
 00001199,0.00015784,0.00003797,0.00009449,0.00007890,-0.00017249,0.000
 09501,-0.00002888,0.00001940,0.00003925,-0.00000733,0.00003876,-0.0000
 1240,0.00004230,0.00000490,-0.00000428,-0.00007423,-0.00001716,-0.0000
 2516,-0.12438526,-0.17125613,-0.05818361,0.00018203,-0.00016222,0.0006
 3453,-0.00019139,-0.00020081,-0.00020964,-0.00004917,0.00009843,-0.000
 09625,-0.00000363,-0.00000166,0.00000770,0.00000073,0.00001946,-0.0000
 3016,0.00000224,-0.00000359,0.00000768,0.00004328,0.00008159,0.0000329
 4,-0.00000335,-0.00000321,0.00000903,0.00000279,0.00000431,-0.00000008
 ,-0.00000533,-0.00000196,0.00000634,0.00000400,0.00000687,0.00000485,0
 .00858286,0.00949732,0.00507071,-0.01893872,-0.01651366,-0.00868612,0.
 13504792,0.17807743,0.00333574,0.00214344,-0.00377216,0.00065098,-0.00
 119739,-0.00029171,-0.00033778,-0.00068787,0.00014471,-0.00127697,-0.0
 0003038,0.00079567,-0.02584707,-0.02492732,-0.02142581,0.00022698,-0.0
 0022686,-0.00026806,0.00036930,-0.00020793,-0.00005107,0.00006410,0.00
 030546,0.00010530,-0.00021644,-0.00000084,-0.00005838,0.00094960,0.000
 10786,-0.00000929,0.00008105,0.00000675,0.00018847,-0.00013890,-0.0000
 2409,0.00002475,-0.00004997,0.00012045,0.00003811,0.00010692,-0.000114
 78,-0.00002595,-0.00035037,-0.00005768,0.00009392,-0.05397754,-0.05318
 550,-0.07260098,0.00016245,0.00015988,-0.00027577,-0.00084741,-0.00092
 706,-0.00107059,0.00020022,0.00018883,-0.00012528,-0.00000136,-0.00000
 030,-0.00001865,0.00001579,0.00002063,-0.00000528,0.00001345,-0.000006
 47,-0.00001981,0.00005554,-0.00000853,-0.00004656,-0.00003015,0.000009
 71,-0.00000097,-0.00001221,0.00000261,-0.00000558,-0.00003160,-0.00000
 647,-0.00000755,0.00002343,0.00000085,-0.00001355,0.00312569,0.0045435
 4,0.00218067,0.01082017,0.00934568,0.00608918,0.06289599,0.06479628,0.
 09005244,-0.00051784,0.00064942,0.00049456,-0.00311747,-0.00147425,0.0
 0117032,0.00159766,-0.00068594,0.00075579,-0.00026759,0.00012976,0.000
 33717,0.00007900,-0.00024758,-0.00010895,-0.00001065,-0.00003668,-0.00
 004209,-0.00013740,-0.00009302,-0.00001270,0.00000751,0.00000694,0.000
 02245,0.00019107,-0.00028153,-0.00011098,-0.00020781,0.00124684,-0.000
 55091,0.00045476,-0.00045782,0.00000355,-0.00040470,-0.00008778,0.0000
 1422,0.00004426,0.00025434,0.00025486,0.00020546,0.00001028,-0.0002211
 3,-0.00301351,0.00145386,-0.00272269,-0.00008698,0.00016783,0.00000865
 ,-0.30346402,-0.08537534,-0.00252499,0.00000647,-0.00034176,-0.0000048
 5,-0.00003590,-0.00002549,-0.00003666,-0.00002402,-0.00000873,-0.00000
 853,-0.00004744,-0.00000214,0.00000142,0.00002368,0.00004549,-0.000061
 17,0.00001189,-0.00000038,-0.00002331,0.00000602,0.00000568,-0.0000248
 6,-0.00000547,-0.00000013,0.00002555,0.00002563,0.00000273,-0.00003764
 ,-0.00171397,0.00139996,-0.00189752,0.00002074,-0.00002614,-0.00002197
 ,-0.00002763,-0.00005426,0.00001617,0.00000865,-0.00003290,-0.00001091
 ,0.32920330,-0.00118630,0.00055748,-0.00099573,-0.02194668,-0.00807342
 ,0.00376784,0.00077114,-0.00234086,0.00299202,-0.00087916,-0.00025978,
 0.00005658,0.00024911,-0.00044950,-0.00004820,0.00038236,-0.00003486,-
 0.00023045,-0.00030184,0.00019206,0.00007747,-0.00024678,-0.00018818,-
 0.00030342,0.00021548,-0.00008179,-0.00004960,0.00041956,-0.00100268,0
 .00034829,0.00005848,-0.00000357,-0.00002913,-0.00010263,0.00005086,0.
 00004497,-0.00006972,0.00008024,0.00007489,0.00014074,0.00014125,-0.00
 001565,0.00108774,-0.00099278,0.00028141,-0.00002980,0.00023450,0.0000
 1210,-0.07993340,-0.07488190,-0.00193360,-0.00000363,0.00024605,0.0000
 2816,-0.00005787,-0.00006340,0.00001793,-0.00001926,-0.00001255,0.0000
 2945,-0.00005213,-0.00000347,-0.00001022,-0.00004925,0.00001544,0.0002
 0193,-0.00000943,0.00005347,0.00000670,-0.00001327,0.00001690,0.000004
 27,-0.00003268,0.00002075,0.00000962,-0.00004173,-0.00001171,-0.000034
 85,0.00033782,0.00046903,0.00079227,0.00002730,-0.00004376,-0.00002469
 ,-0.00002811,0.00008059,0.00005050,0.00001642,-0.00004280,0.00000070,0
 .09053298,0.07961888,0.00037575,-0.00082910,0.00122744,0.02829341,0.00
 812187,-0.00252475,-0.00080173,0.00384226,-0.00264017,0.00138735,0.000
 18877,-0.00024916,-0.00015434,0.00040634,0.00006995,-0.00008379,0.0001
 8344,0.00029239,0.00017133,0.00013654,0.00000669,-0.00002919,-0.000149
 41,0.00011404,0.00028562,0.00020569,0.00011410,-0.00012193,0.00056426,
 -0.00004347,-0.00004917,-0.00016947,0.00001360,-0.00004541,-0.00005378
 ,-0.00002865,0.00005698,0.00004773,0.00002707,0.00005880,-0.00021108,-
 0.00012103,-0.00175209,0.00135569,-0.00072792,-0.00010275,0.00018715,-
 0.00025668,-0.01018540,-0.00271023,-0.05045871,0.00004038,-0.00028457,
 -0.00006719,0.00009604,0.00005869,0.00003423,0.00002408,0.00001431,-0.
 00001040,0.00006285,0.00000817,-0.00001033,-0.00002850,-0.00007400,-0.
 00007950,0.00002157,-0.00004198,-0.00001341,-0.00000433,-0.00000845,-0
 .00000856,0.00002069,-0.00002897,0.00000047,0.00002024,0.00000600,0.00
 001418,-0.00185521,0.00066273,-0.00174849,-0.00001039,-0.00004133,0.00
 005709,-0.00010729,0.00011434,0.00014999,0.00001058,-0.00005720,0.0000
 2995,0.00627989,-0.00525939,0.05572129,-0.00021934,-0.00170523,0.00084
 851,0.00455137,-0.00598970,0.00061697,-0.00021563,-0.00155091,-0.00045
 353,0.00047272,0.00050866,-0.00005450,-0.00008112,0.00039335,-0.000133
 72,-0.00051927,-0.00008644,0.00009264,0.00028508,-0.00033710,-0.000208
 90,0.00031986,0.00030715,0.00028533,-0.00066820,-0.00073375,0.00079325
 ,0.00002784,0.00012991,-0.00010386,0.00013020,-0.00015236,-0.00002383,
 -0.00018025,-0.00000717,0.00001508,-0.00003451,0.00013845,0.00010824,0
 .00018383,0.00005974,-0.00008516,-0.00025422,-0.00007509,-0.00051262,-
 0.00001340,-0.00016278,-0.00015712,-0.14853709,0.13242770,0.02458982,0
 .00012715,-0.00009599,0.00004326,0.00000803,0.00000707,0.00002159,0.00
 000305,0.00001400,-0.00003460,0.00004287,0.00001045,0.00003661,-0.0001
 8453,0.00004089,0.00003045,0.00000790,0.00001837,0.00001008,-0.0000127
 8,0.00001276,-0.00000628,-0.00002114,0.00001118,0.00001418,-0.00002001
 ,-0.00000839,-0.00002342,-0.00006145,0.00027739,0.00020694,0.00001069,
 -0.00003630,0.00000293,0.00000077,-0.00003162,0.00011374,0.00001414,-0
 .00004844,-0.00000357,-0.01478905,0.02424347,0.00503964,0.15449617,-0.
 00270081,0.00135005,0.00292825,0.01317913,-0.02168037,0.00358218,0.001
 51657,0.00058650,-0.00016760,0.00019960,-0.00056241,-0.00050921,-0.000
 59013,-0.00048072,-0.00027518,0.00034975,-0.00000282,0.00002378,-0.000
 12372,0.00035401,0.00015955,-0.00042544,-0.00023588,-0.00026629,-0.000
 11341,-0.00005750,-0.00010274,-0.00064080,0.00014048,0.00000277,0.0002
 4705,-0.00002072,-0.00005536,-0.00008075,-0.00005623,-0.00001953,0.000
 04519,0.00007485,0.00003294,0.00008586,0.00000934,-0.00003103,-0.00006
 913,0.00000670,-0.00015477,-0.00022322,0.00029089,-0.00037366,0.127473
 29,-0.21550511,-0.03424682,0.00055767,-0.00099628,0.00024208,-0.000011
 64,-0.00001072,-0.00000036,-0.00001035,0.00000490,0.00003998,-0.000003
 21,-0.00000520,-0.00000019,-0.00004075,0.00005809,0.00021768,-0.000018
 13,0.00000255,0.00000574,0.00002335,-0.00000663,-0.00000341,0.00000750
 ,0.00000046,0.00000378,0.00002226,0.00000603,-0.00000146,-0.00005590,0
 .00000860,0.00000413,0.00002780,-0.00006601,0.00000737,-0.00000394,-0.
 00030072,0.00009247,0.00002977,-0.00012162,-0.00002743,-0.00633855,0.0
 1022904,0.00152042,-0.14048175,0.23630396,0.00225670,0.00120109,-0.003
 08144,-0.01914525,0.02737487,-0.00075448,-0.00043192,-0.00009640,0.000
 65030,-0.00019918,0.00024148,0.00028196,0.00048282,0.00110149,0.000354
 58,-0.00001740,0.00006069,-0.00003026,-0.00001794,-0.00012670,0.000013
 77,0.00015678,0.00005431,-0.00011354,0.00018609,0.00029113,-0.00016603
 ,0.00068707,-0.00005516,-0.00009817,-0.00024282,-0.00000775,0.00009441
 ,0.00006738,0.00008265,0.00003699,-0.00004084,-0.00007842,-0.00001426,
 -0.00009349,0.00001950,0.00001646,0.00001425,-0.00012062,0.00006584,0.
 00005280,0.00024005,-0.00066966,0.02994898,-0.03992307,-0.05503729,-0.
 00053333,0.00098388,-0.00026333,0.00001176,0.00001697,-0.00001918,0.00
 001304,-0.00001140,0.00000948,0.00000322,0.00001011,-0.00001736,0.0001
 7818,-0.00003982,-0.00007489,0.00001749,0.00000868,-0.00001060,-0.0000
 2274,0.00000963,-0.00000447,-0.00001052,0.00000246,-0.00000378,-0.0000
 2315,-0.00000370,-0.00000776,0.00004027,0.00004272,-0.00003549,0.00000
 044,-0.00007812,0.00004506,-0.00001524,-0.00022272,0.00037817,0.000008
 00,-0.00015149,0.00013918,-0.00122121,0.00070926,-0.00012627,-0.029471
 04,0.02961949,0.06118042,0.00007072,-0.00009461,-0.00066478,0.00146858
 ,0.00100988,0.00545132,-0.00034688,0.00040052,0.00357965,-0.00071034,0
 .00100652,-0.00022413,-0.00030296,0.00055620,-0.00043596,-0.00040829,0
 .00004920,-0.00008560,0.00023748,-0.00017668,-0.00001863,0.00005416,0.
 00021123,0.00000573,-0.00021642,0.00019805,-0.00043960,0.00002877,-0.0
 0005774,0.00005448,-0.00002508,0.00004088,0.00004713,0.00001335,0.0000
 5867,0.00001283,-0.00000641,-0.00005585,0.00002601,-0.00006434,0.00011
 212,0.00005217,0.00014136,-0.00029682,-0.00025808,0.00111366,-0.003118
 65,-0.00028916,-0.06371280,-0.02287400,-0.04869046,0.00000072,-0.00002
 593,-0.00007457,0.00003667,0.00002228,0.00005229,0.00001851,0.00000382
 ,-0.00000749,0.00002127,-0.00001094,0.00001305,0.00000600,-0.00004922,
 0.00005406,0.00000340,0.00000727,0.00000191,0.00000018,0.00000570,-0.0
 0000403,-0.00001000,0.00001176,-0.00000091,-0.00000255,0.00000195,-0.0
 0001919,0.00013825,0.00021457,0.00017752,-0.00000993,0.00002930,-0.000
 04473,0.00125239,-0.00006650,0.00017944,0.00000473,-0.00008281,0.00003
 483,-0.00401465,-0.01347893,-0.02691372,0.00513033,0.00816683,0.017360
 83,0.06009014,0.00074668,0.00154085,0.00091988,-0.00052720,0.00631953,
 0.02665693,0.00242554,0.00163756,0.00248344,-0.00149784,0.00101092,-0.
 00006932,-0.00017921,0.00146788,-0.00114923,-0.00022027,0.00003977,-0.
 00000314,0.00006432,-0.00024152,-0.00002122,0.00014963,0.00027900,-0.0
 0001228,-0.00073827,0.00000189,-0.00057480,0.00007526,-0.00007303,-0.0
 0003116,0.00012239,-0.00001344,-0.00003292,-0.00009879,-0.00003363,0.0
 0001718,-0.00000112,0.00008566,0.00003308,0.00009377,-0.00002099,-0.00
 000951,-0.00013296,-0.00003135,-0.00011842,0.00035486,-0.00466978,0.00
 005329,-0.02307519,-0.09627846,-0.09847725,0.00022563,-0.00029225,-0.0
 0025720,0.00003153,-0.00000320,0.00000931,0.00001620,-0.00000858,0.000
 01040,-0.00001275,-0.00001161,-0.00000149,0.00006058,-0.00001078,0.000
 07350,0.00001241,0.00000015,-0.00000420,-0.00000222,0.00000168,0.00000
 233,-0.00000615,0.00000496,-0.00000129,-0.00000293,-0.00000225,-0.0000
 0310,0.00004604,0.00004557,0.00008745,0.00003904,0.00021633,-0.0001288
 6,0.00122530,-0.00315942,-0.00120367,-0.00004301,-0.00010347,-0.000115
 79,-0.00033568,-0.00351950,-0.00770545,-0.00709751,-0.00931752,-0.0211
 5506,0.02828194,0.10513905,0.00132626,-0.00281962,0.00033520,0.0001819
 4,0.00278598,-0.03122667,-0.00585410,-0.00222297,0.00107231,0.00044667
 ,0.00115598,-0.00000911,-0.00054448,0.00216438,0.00073896,-0.00041674,
 0.00003933,-0.00006377,0.00048674,0.00006124,-0.00000840,-0.00006647,-
 0.00005492,-0.00003186,0.00097272,-0.00003352,0.00018346,0.00016133,0.
 00038128,-0.00015562,-0.00018465,-0.00007851,0.00001075,-0.00003495,0.
 00005039,0.00003184,-0.00005517,0.00001651,0.00000962,0.00001992,-0.00
 000490,-0.00004146,-0.00004376,-0.00000060,0.00004760,0.00038826,-0.00
 108864,-0.00125982,-0.04735954,-0.09629300,-0.24357039,-0.00027479,0.0
 0072743,0.00009569,0.00006882,0.00005651,0.00005820,0.00003894,0.00001
 547,-0.00000402,0.00008832,0.00000517,-0.00000675,0.00001149,-0.000044
 57,0.00005957,0.00002632,0.00000321,0.00000309,-0.00003032,0.00000975,
 0.00000349,-0.00001329,0.00000154,0.00000471,-0.00002361,-0.00000804,-
 0.00000646,0.00011007,0.00003691,0.00005182,0.00003015,-0.00006808,0.0
 0005243,0.00075288,-0.00229573,0.00105814,0.00006195,-0.00040754,0.000
 21065,0.00025844,-0.00057144,0.00124218,-0.00159714,-0.00224757,-0.002
 73832,0.05106781,0.10072860,0.27385294\\-0.00002549,-0.00006109,0.0000
 1799,-0.00002293,0.00004317,-0.00001309,0.00003598,0.00004735,0.000025
 73,-0.00001413,-0.00004091,-0.00000037,0.00000023,0.00002913,0.0000191
 8,0.00003786,-0.00000063,0.00000360,-0.00000872,0.00003653,0.00002386,
 -0.00000702,-0.00003717,-0.00000298,0.00002893,-0.00001560,-0.00000090
 ,0.00002359,-0.00006126,-0.00003932,-0.00001770,0.00003277,0.00000276,
 0.00001553,0.00002204,-0.00000427,-0.00000646,-0.00001538,-0.00001340,
 -0.00001674,0.00000183,-0.00000841,0.00001542,0.00003035,0.00000630,-0
 .00002693,0.00002172,-0.00002118,-0.00000520,-0.00002335,0.00001325,0.
 00001106,0.00001165,0.00000110,-0.00000404,0.00000061,0.00000742,0.000
 00153,-0.00000115,0.00001027,0.00000427,0.00000102,0.00001373,0.000001
 83,-0.00000055,0.00000777,-0.00000388,-0.00000471,-0.00000910,-0.00000
 509,-0.00000122,-0.00001185,-0.00000121,0.,-0.00001199,0.00000330,-0.0
 0000097,-0.00000915,-0.00000543,-0.00000530,-0.00001217,0.00001964,-0.
 00001310,0.00000788,-0.00001613,-0.00000364,-0.00000076,-0.00000164,0.
 00000768,0.00000214,0.00000588,0.00000024,0.00000364,-0.00000483,0.000
 00163,0.00000088,-0.00001146,-0.00000171,-0.00000855\\\@
 The archive entry for this job was punched.


 WE ARE REACHING THE STAGE WHERE THE PROBLEMS WE MUST SOLVE ARE 
 GOING TO BECOME INSOLUBLE WITHOUT COMPUTERS.
 I DO NOT FEAR COMPUTERS.  I FEAR THE LACK OF THEM.

                                   -- ISSAC ASIMOV
 Job cpu time:       0 days  8 hours 14 minutes 35.3 seconds.
 Elapsed time:       0 days  0 hours 25 minutes 19.9 seconds.
 File lengths (MBytes):  RWF=   1137 Int=      0 D2E=      0 Chk=     30 Scr=      1
 Normal termination of Gaussian 16 at Mon Nov  7 22:43:23 2022.
