 Entering Gaussian System, Link 0=g16
 Input=BIH-conformers-5.gau
 Output=BIH-conformers-5.log
 Initial command:
 /apps/gaussian/g16c01/g16/l1.exe "/jobfs/62953831.gadi-pbs/Gau-1372168.inp" -scrdir="/jobfs/62953831.gadi-pbs/"
 Default is to use a total of  20 processors:
                               20 via shared-memory
                                1 via Linda
 Entering Link 1 = /apps/gaussian/g16c01/g16/l1.exe PID=   1372169.
  
 Copyright (c) 1988-2019, Gaussian, Inc.  All Rights Reserved.
  
 This is part of the Gaussian(R) 16 program.  It is based on
 the Gaussian(R) 09 system (copyright 2009, Gaussian, Inc.),
 the Gaussian(R) 03 system (copyright 2003, Gaussian, Inc.),
 the Gaussian(R) 98 system (copyright 1998, Gaussian, Inc.),
 the Gaussian(R) 94 system (copyright 1995, Gaussian, Inc.),
 the Gaussian 92(TM) system (copyright 1992, Gaussian, Inc.),
 the Gaussian 90(TM) system (copyright 1990, Gaussian, Inc.),
 the Gaussian 88(TM) system (copyright 1988, Gaussian, Inc.),
 the Gaussian 86(TM) system (copyright 1986, Carnegie Mellon
 University), and the Gaussian 82(TM) system (copyright 1983,
 Carnegie Mellon University). Gaussian is a federally registered
 trademark of Gaussian, Inc.
  
 This software contains proprietary and confidential information,
 including trade secrets, belonging to Gaussian, Inc.
  
 This software is provided under written license and may be
 used, copied, transmitted, or stored only in accord with that
 written license.
  
 The following legend is applicable only to US Government
 contracts under FAR:
  
                    RESTRICTED RIGHTS LEGEND
  
 Use, reproduction and disclosure by the US Government is
 subject to restrictions as set forth in subparagraphs (a)
 and (c) of the Commercial Computer Software - Restricted
 Rights clause in FAR 52.227-19.
  
 Gaussian, Inc.
 340 Quinnipiac St., Bldg. 40, Wallingford CT 06492
  
  
 ---------------------------------------------------------------
 Warning -- This program may not be used in any manner that
 competes with the business of Gaussian, Inc. or will provide
 assistance to any competitor of Gaussian, Inc.  The licensee
 of this program is prohibited from giving any competitor of
 Gaussian, Inc. access to this program.  By using this program,
 the user acknowledges that Gaussian, Inc. is engaged in the
 business of creating and licensing software in the field of
 computational chemistry and represents and warrants to the
 licensee that it is not a competitor of Gaussian, Inc. and that
 it will not use this program in any manner prohibited above.
 ---------------------------------------------------------------
  

 Cite this work as:
 Gaussian 16, Revision C.01,
 M. J. Frisch, G. W. Trucks, H. B. Schlegel, G. E. Scuseria, 
 M. A. Robb, J. R. Cheeseman, G. Scalmani, V. Barone, 
 G. A. Petersson, H. Nakatsuji, X. Li, M. Caricato, A. V. Marenich, 
 J. Bloino, B. G. Janesko, R. Gomperts, B. Mennucci, H. P. Hratchian, 
 J. V. Ortiz, A. F. Izmaylov, J. L. Sonnenberg, D. Williams-Young, 
 F. Ding, F. Lipparini, F. Egidi, J. Goings, B. Peng, A. Petrone, 
 T. Henderson, D. Ranasinghe, V. G. Zakrzewski, J. Gao, N. Rega, 
 G. Zheng, W. Liang, M. Hada, M. Ehara, K. Toyota, R. Fukuda, 
 J. Hasegawa, M. Ishida, T. Nakajima, Y. Honda, O. Kitao, H. Nakai, 
 T. Vreven, K. Throssell, J. A. Montgomery, Jr., J. E. Peralta, 
 F. Ogliaro, M. J. Bearpark, J. J. Heyd, E. N. Brothers, K. N. Kudin, 
 V. N. Staroverov, T. A. Keith, R. Kobayashi, J. Normand, 
 K. Raghavachari, A. P. Rendell, J. C. Burant, S. S. Iyengar, 
 J. Tomasi, M. Cossi, J. M. Millam, M. Klene, C. Adamo, R. Cammi, 
 J. W. Ochterski, R. L. Martin, K. Morokuma, O. Farkas, 
 J. B. Foresman, and D. J. Fox, Gaussian, Inc., Wallingford CT, 2019.
 
 ******************************************
 Gaussian 16:  ES64L-G16RevC.01  3-Jul-2019
                 7-Nov-2022 
 ******************************************
 %chk=BIH-conformers-5.chk
 Default route: Maxdisk=0MB
 ----------------------------------------------------------------------
 # opt(maxcycles=1000) freq=Noraman scf(maxcycle=500) uwb97xd/6-31+G(d,
 p) scrf=(smd,solvent=acetonitrile)
 ----------------------------------------------------------------------
 1/6=1000,18=20,19=15,26=3,38=1/1,3;
 2/9=110,12=2,17=6,18=5,40=1/2;
 3/5=1,6=6,7=111,11=2,25=1,30=1,70=32201,71=1,72=2,74=-58,116=2/1,2,3;
 4//1;
 5/5=2,7=500,38=5,53=2/2;
 6/7=2,8=2,9=2,10=2,28=1/1;
 7//1,2,3,16;
 1/6=1000,18=20,19=15,26=3/3(2);
 2/9=110/2;
 99//99;
 2/9=110/2;
 3/5=1,6=6,7=111,11=2,25=1,30=1,70=32205,71=1,72=2,74=-58,116=2/1,2,3;
 4/5=5,16=3,69=1/1;
 5/5=2,7=500,38=5,53=2/2;
 7//1,2,3,16;
 1/6=1000,18=20,19=15,26=3/3(-5);
 2/9=110/2;
 6/7=2,8=2,9=2,10=2,19=2,28=1/1;
 99/9=1/99;
 ----------
 OPT + Freq
 ----------
 Symbolic Z-matrix:
 Charge =  0 Multiplicity = 1
 C                     0.33805  -0.00972   1.32773 
 N                    -0.5754    1.13416   1.14831 
 C                    -1.61614   0.70637   0.31351 
 C                    -1.61767  -0.70696   0.30319 
 N                    -0.57729  -1.14905   1.13131 
 C                    -2.54327  -1.41534  -0.44201 
 C                    -3.50594  -0.68205  -1.17576 
 C                    -3.50429   0.70729  -1.16577 
 C                    -2.53984   1.42765  -0.42162 
 C                     1.53185  -0.00272   0.3741 
 C                     1.359    -0.00035  -1.01703 
 C                     2.46668   0.00793  -1.86376 
 C                     3.76125   0.01376  -1.33079 
 C                     3.9397    0.01134   0.0527 
 C                     2.82516   0.00318   0.89827 
 C                    -0.00792  -2.47322   0.94627 
 C                    -0.00291   2.4595    0.98274 
 H                     0.72415  -0.0173    2.35453 
 H                    -2.5324   -2.50176  -0.47112 
 H                    -4.2453   -1.21989  -1.76466 
 H                    -4.24226   1.25542  -1.74689 
 H                    -2.5264    2.51435  -0.435 
 H                     0.35851  -0.00485  -1.44237 
 H                     2.32272   0.00974  -2.94188 
 H                     4.62344   0.02007  -1.99369 
 H                     4.94167   0.01572   0.4757 
 H                     2.96383   0.00134   1.97835 
 H                     0.76953  -2.63523   1.69825 
 H                     0.43172  -2.60773  -0.05334 
 H                    -0.78824  -3.22566   1.09249 
 H                    -0.78059   3.21185   1.14305 
 H                     0.43436   2.60865  -0.01588 
 H                     0.77697   2.60702   1.73517 
 

 GradGradGradGradGradGradGradGradGradGradGradGradGradGradGradGradGradGrad
 Berny optimization.
 Initialization pass.
                           ----------------------------
                           !    Initial Parameters    !
                           ! (Angstroms and Degrees)  !
 --------------------------                            --------------------------
 ! Name  Definition              Value          Derivative Info.                !
 --------------------------------------------------------------------------------
 ! R1    R(1,2)                  1.4748         estimate D2E/DX2                !
 ! R2    R(1,5)                  1.4746         estimate D2E/DX2                !
 ! R3    R(1,10)                 1.5279         estimate D2E/DX2                !
 ! R4    R(1,18)                 1.097          estimate D2E/DX2                !
 ! R5    R(2,3)                  1.4011         estimate D2E/DX2                !
 ! R6    R(2,17)                 1.4532         estimate D2E/DX2                !
 ! R7    R(3,4)                  1.4134         estimate D2E/DX2                !
 ! R8    R(3,9)                  1.3834         estimate D2E/DX2                !
 ! R9    R(4,5)                  1.4013         estimate D2E/DX2                !
 ! R10   R(4,6)                  1.3834         estimate D2E/DX2                !
 ! R11   R(5,16)                 1.4532         estimate D2E/DX2                !
 ! R12   R(6,7)                  1.4152         estimate D2E/DX2                !
 ! R13   R(6,19)                 1.0869         estimate D2E/DX2                !
 ! R14   R(7,8)                  1.3894         estimate D2E/DX2                !
 ! R15   R(7,20)                 1.0875         estimate D2E/DX2                !
 ! R16   R(8,9)                  1.4152         estimate D2E/DX2                !
 ! R17   R(8,21)                 1.0875         estimate D2E/DX2                !
 ! R18   R(9,22)                 1.0869         estimate D2E/DX2                !
 ! R19   R(10,11)                1.4018         estimate D2E/DX2                !
 ! R20   R(10,15)                1.3955         estimate D2E/DX2                !
 ! R21   R(11,12)                1.3943         estimate D2E/DX2                !
 ! R22   R(11,23)                1.0872         estimate D2E/DX2                !
 ! R23   R(12,13)                1.4            estimate D2E/DX2                !
 ! R24   R(12,24)                1.0877         estimate D2E/DX2                !
 ! R25   R(13,14)                1.395          estimate D2E/DX2                !
 ! R26   R(13,25)                1.0876         estimate D2E/DX2                !
 ! R27   R(14,15)                1.399          estimate D2E/DX2                !
 ! R28   R(14,26)                1.0876         estimate D2E/DX2                !
 ! R29   R(15,27)                1.0889         estimate D2E/DX2                !
 ! R30   R(16,28)                1.0937         estimate D2E/DX2                !
 ! R31   R(16,29)                1.1003         estimate D2E/DX2                !
 ! R32   R(16,30)                1.0938         estimate D2E/DX2                !
 ! R33   R(17,31)                1.0939         estimate D2E/DX2                !
 ! R34   R(17,32)                1.1003         estimate D2E/DX2                !
 ! R35   R(17,33)                1.0937         estimate D2E/DX2                !
 ! A1    A(2,1,5)              101.455          estimate D2E/DX2                !
 ! A2    A(2,1,10)             113.8555         estimate D2E/DX2                !
 ! A3    A(2,1,18)             109.7078         estimate D2E/DX2                !
 ! A4    A(5,1,10)             113.9155         estimate D2E/DX2                !
 ! A5    A(5,1,18)             109.7434         estimate D2E/DX2                !
 ! A6    A(10,1,18)            108.0123         estimate D2E/DX2                !
 ! A7    A(1,2,3)              107.2021         estimate D2E/DX2                !
 ! A8    A(1,2,17)             118.5058         estimate D2E/DX2                !
 ! A9    A(3,2,17)             120.2134         estimate D2E/DX2                !
 ! A10   A(2,3,4)              108.0876         estimate D2E/DX2                !
 ! A11   A(2,3,9)              130.7974         estimate D2E/DX2                !
 ! A12   A(4,3,9)              121.1149         estimate D2E/DX2                !
 ! A13   A(3,4,5)              108.0809         estimate D2E/DX2                !
 ! A14   A(3,4,6)              121.1105         estimate D2E/DX2                !
 ! A15   A(5,4,6)              130.8086         estimate D2E/DX2                !
 ! A16   A(1,5,4)              107.207          estimate D2E/DX2                !
 ! A17   A(1,5,16)             118.5402         estimate D2E/DX2                !
 ! A18   A(4,5,16)             120.2059         estimate D2E/DX2                !
 ! A19   A(4,6,7)              117.9747         estimate D2E/DX2                !
 ! A20   A(4,6,19)             121.3037         estimate D2E/DX2                !
 ! A21   A(7,6,19)             120.7207         estimate D2E/DX2                !
 ! A22   A(6,7,8)              120.9037         estimate D2E/DX2                !
 ! A23   A(6,7,20)             119.1403         estimate D2E/DX2                !
 ! A24   A(8,7,20)             119.9501         estimate D2E/DX2                !
 ! A25   A(7,8,9)              120.9033         estimate D2E/DX2                !
 ! A26   A(7,8,21)             119.9566         estimate D2E/DX2                !
 ! A27   A(9,8,21)             119.1341         estimate D2E/DX2                !
 ! A28   A(3,9,8)              117.9723         estimate D2E/DX2                !
 ! A29   A(3,9,22)             121.3037         estimate D2E/DX2                !
 ! A30   A(8,9,22)             120.7232         estimate D2E/DX2                !
 ! A31   A(1,10,11)            121.5359         estimate D2E/DX2                !
 ! A32   A(1,10,15)            119.3198         estimate D2E/DX2                !
 ! A33   A(11,10,15)           119.1443         estimate D2E/DX2                !
 ! A34   A(10,11,12)           120.312          estimate D2E/DX2                !
 ! A35   A(10,11,23)           120.1138         estimate D2E/DX2                !
 ! A36   A(12,11,23)           119.5742         estimate D2E/DX2                !
 ! A37   A(11,12,13)           120.2293         estimate D2E/DX2                !
 ! A38   A(11,12,24)           119.7889         estimate D2E/DX2                !
 ! A39   A(13,12,24)           119.9818         estimate D2E/DX2                !
 ! A40   A(12,13,14)           119.7255         estimate D2E/DX2                !
 ! A41   A(12,13,25)           120.0688         estimate D2E/DX2                !
 ! A42   A(14,13,25)           120.2057         estimate D2E/DX2                !
 ! A43   A(13,14,15)           119.8373         estimate D2E/DX2                !
 ! A44   A(13,14,26)           120.2367         estimate D2E/DX2                !
 ! A45   A(15,14,26)           119.926          estimate D2E/DX2                !
 ! A46   A(10,15,14)           120.7517         estimate D2E/DX2                !
 ! A47   A(10,15,27)           119.3772         estimate D2E/DX2                !
 ! A48   A(14,15,27)           119.8711         estimate D2E/DX2                !
 ! A49   A(5,16,28)            109.0226         estimate D2E/DX2                !
 ! A50   A(5,16,29)            112.5585         estimate D2E/DX2                !
 ! A51   A(5,16,30)            109.2858         estimate D2E/DX2                !
 ! A52   A(28,16,29)           108.8153         estimate D2E/DX2                !
 ! A53   A(28,16,30)           108.2585         estimate D2E/DX2                !
 ! A54   A(29,16,30)           108.8084         estimate D2E/DX2                !
 ! A55   A(2,17,31)            109.2996         estimate D2E/DX2                !
 ! A56   A(2,17,32)            112.5564         estimate D2E/DX2                !
 ! A57   A(2,17,33)            108.9996         estimate D2E/DX2                !
 ! A58   A(31,17,32)           108.803          estimate D2E/DX2                !
 ! A59   A(31,17,33)           108.2628         estimate D2E/DX2                !
 ! A60   A(32,17,33)           108.828          estimate D2E/DX2                !
 ! D1    D(5,1,2,3)            -26.8794         estimate D2E/DX2                !
 ! D2    D(5,1,2,17)          -167.018          estimate D2E/DX2                !
 ! D3    D(10,1,2,3)            95.9317         estimate D2E/DX2                !
 ! D4    D(10,1,2,17)          -44.2068         estimate D2E/DX2                !
 ! D5    D(18,1,2,3)          -142.9006         estimate D2E/DX2                !
 ! D6    D(18,1,2,17)           76.9608         estimate D2E/DX2                !
 ! D7    D(2,1,5,4)             26.863          estimate D2E/DX2                !
 ! D8    D(2,1,5,16)           167.0342         estimate D2E/DX2                !
 ! D9    D(10,1,5,4)           -95.9069         estimate D2E/DX2                !
 ! D10   D(10,1,5,16)           44.2643         estimate D2E/DX2                !
 ! D11   D(18,1,5,4)           142.858          estimate D2E/DX2                !
 ! D12   D(18,1,5,16)          -76.9708         estimate D2E/DX2                !
 ! D13   D(2,1,10,11)          -58.2709         estimate D2E/DX2                !
 ! D14   D(2,1,10,15)          121.6467         estimate D2E/DX2                !
 ! D15   D(5,1,10,11)           57.4283         estimate D2E/DX2                !
 ! D16   D(5,1,10,15)         -122.6541         estimate D2E/DX2                !
 ! D17   D(18,1,10,11)         179.6214         estimate D2E/DX2                !
 ! D18   D(18,1,10,15)          -0.461          estimate D2E/DX2                !
 ! D19   D(1,2,3,4)             17.5364         estimate D2E/DX2                !
 ! D20   D(1,2,3,9)           -162.4085         estimate D2E/DX2                !
 ! D21   D(17,2,3,4)           156.8611         estimate D2E/DX2                !
 ! D22   D(17,2,3,9)           -23.0837         estimate D2E/DX2                !
 ! D23   D(1,2,17,31)         -164.25           estimate D2E/DX2                !
 ! D24   D(1,2,17,32)           74.7358         estimate D2E/DX2                !
 ! D25   D(1,2,17,33)          -46.1025         estimate D2E/DX2                !
 ! D26   D(3,2,17,31)           60.8638         estimate D2E/DX2                !
 ! D27   D(3,2,17,32)          -60.1505         estimate D2E/DX2                !
 ! D28   D(3,2,17,33)          179.0113         estimate D2E/DX2                !
 ! D29   D(2,3,4,5)             -0.0265         estimate D2E/DX2                !
 ! D30   D(2,3,4,6)           -179.9759         estimate D2E/DX2                !
 ! D31   D(9,3,4,5)            179.9247         estimate D2E/DX2                !
 ! D32   D(9,3,4,6)             -0.0247         estimate D2E/DX2                !
 ! D33   D(2,3,9,8)           -178.8845         estimate D2E/DX2                !
 ! D34   D(2,3,9,22)             1.4386         estimate D2E/DX2                !
 ! D35   D(4,3,9,8)              1.1767         estimate D2E/DX2                !
 ! D36   D(4,3,9,22)          -178.5002         estimate D2E/DX2                !
 ! D37   D(3,4,5,1)            -17.4966         estimate D2E/DX2                !
 ! D38   D(3,4,5,16)          -156.8747         estimate D2E/DX2                !
 ! D39   D(6,4,5,1)            162.4462         estimate D2E/DX2                !
 ! D40   D(6,4,5,16)            23.068          estimate D2E/DX2                !
 ! D41   D(3,4,6,7)             -1.1394         estimate D2E/DX2                !
 ! D42   D(3,4,6,19)           178.5156         estimate D2E/DX2                !
 ! D43   D(5,4,6,7)            178.9241         estimate D2E/DX2                !
 ! D44   D(5,4,6,19)            -1.4209         estimate D2E/DX2                !
 ! D45   D(1,5,16,28)           46.2691         estimate D2E/DX2                !
 ! D46   D(1,5,16,29)          -74.5704         estimate D2E/DX2                !
 ! D47   D(1,5,16,30)          164.4167         estimate D2E/DX2                !
 ! D48   D(4,5,16,28)         -178.7995         estimate D2E/DX2                !
 ! D49   D(4,5,16,29)           60.3611         estimate D2E/DX2                !
 ! D50   D(4,5,16,30)          -60.6518         estimate D2E/DX2                !
 ! D51   D(4,6,7,8)              1.1474         estimate D2E/DX2                !
 ! D52   D(4,6,7,20)          -179.736          estimate D2E/DX2                !
 ! D53   D(19,6,7,8)          -178.5097         estimate D2E/DX2                !
 ! D54   D(19,6,7,20)            0.6069         estimate D2E/DX2                !
 ! D55   D(6,7,8,9)              0.003          estimate D2E/DX2                !
 ! D56   D(6,7,8,21)           179.1046         estimate D2E/DX2                !
 ! D57   D(20,7,8,9)          -179.1065         estimate D2E/DX2                !
 ! D58   D(20,7,8,21)           -0.0049         estimate D2E/DX2                !
 ! D59   D(7,8,9,3)             -1.1636         estimate D2E/DX2                !
 ! D60   D(7,8,9,22)           178.5152         estimate D2E/DX2                !
 ! D61   D(21,8,9,3)           179.7275         estimate D2E/DX2                !
 ! D62   D(21,8,9,22)           -0.5936         estimate D2E/DX2                !
 ! D63   D(1,10,11,12)         179.9114         estimate D2E/DX2                !
 ! D64   D(1,10,11,23)          -0.0814         estimate D2E/DX2                !
 ! D65   D(15,10,11,12)         -0.0063         estimate D2E/DX2                !
 ! D66   D(15,10,11,23)       -179.9992         estimate D2E/DX2                !
 ! D67   D(1,10,15,14)        -179.9203         estimate D2E/DX2                !
 ! D68   D(1,10,15,27)           0.0821         estimate D2E/DX2                !
 ! D69   D(11,10,15,14)         -0.0008         estimate D2E/DX2                !
 ! D70   D(11,10,15,27)       -179.9984         estimate D2E/DX2                !
 ! D71   D(10,11,12,13)          0.0086         estimate D2E/DX2                !
 ! D72   D(10,11,12,24)       -179.9978         estimate D2E/DX2                !
 ! D73   D(23,11,12,13)       -179.9985         estimate D2E/DX2                !
 ! D74   D(23,11,12,24)         -0.0049         estimate D2E/DX2                !
 ! D75   D(11,12,13,14)         -0.0037         estimate D2E/DX2                !
 ! D76   D(11,12,13,25)        179.9914         estimate D2E/DX2                !
 ! D77   D(24,12,13,14)       -179.9973         estimate D2E/DX2                !
 ! D78   D(24,12,13,25)         -0.0022         estimate D2E/DX2                !
 ! D79   D(12,13,14,15)         -0.0033         estimate D2E/DX2                !
 ! D80   D(12,13,14,26)        179.9935         estimate D2E/DX2                !
 ! D81   D(25,13,14,15)       -179.9984         estimate D2E/DX2                !
 ! D82   D(25,13,14,26)         -0.0016         estimate D2E/DX2                !
 ! D83   D(13,14,15,10)          0.0056         estimate D2E/DX2                !
 ! D84   D(13,14,15,27)       -179.9968         estimate D2E/DX2                !
 ! D85   D(26,14,15,10)       -179.9912         estimate D2E/DX2                !
 ! D86   D(26,14,15,27)          0.0064         estimate D2E/DX2                !
 --------------------------------------------------------------------------------
 Trust Radius=3.00D-01 FncErr=1.00D-07 GrdErr=1.00D-06 EigMax=2.50D+02 EigMin=1.00D-04
 Number of steps in this run=    198 maximum allowed number of steps=    198.
 GradGradGradGradGradGradGradGradGradGradGradGradGradGradGradGradGradGrad

                          Input orientation:                          
 ---------------------------------------------------------------------
 Center     Atomic      Atomic             Coordinates (Angstroms)
 Number     Number       Type             X           Y           Z
 ---------------------------------------------------------------------
      1          6           0        0.338045   -0.009724    1.327734
      2          7           0       -0.575400    1.134159    1.148311
      3          6           0       -1.616141    0.706369    0.313508
      4          6           0       -1.617667   -0.706960    0.303188
      5          7           0       -0.577288   -1.149046    1.131311
      6          6           0       -2.543269   -1.415339   -0.442008
      7          6           0       -3.505943   -0.682046   -1.175756
      8          6           0       -3.504289    0.707287   -1.165766
      9          6           0       -2.539843    1.427650   -0.421616
     10          6           0        1.531847   -0.002719    0.374100
     11          6           0        1.358997   -0.000352   -1.017035
     12          6           0        2.466683    0.007925   -1.863762
     13          6           0        3.761253    0.013760   -1.330793
     14          6           0        3.939698    0.011341    0.052698
     15          6           0        2.825164    0.003178    0.898271
     16          6           0       -0.007916   -2.473221    0.946271
     17          6           0       -0.002909    2.459503    0.982744
     18          1           0        0.724148   -0.017304    2.354531
     19          1           0       -2.532400   -2.501757   -0.471115
     20          1           0       -4.245300   -1.219894   -1.764659
     21          1           0       -4.242258    1.255416   -1.746889
     22          1           0       -2.526400    2.514347   -0.434995
     23          1           0        0.358508   -0.004852   -1.442374
     24          1           0        2.322721    0.009739   -2.941876
     25          1           0        4.623437    0.020071   -1.993691
     26          1           0        4.941668    0.015724    0.475698
     27          1           0        2.963827    0.001337    1.978351
     28          1           0        0.769531   -2.635230    1.698251
     29          1           0        0.431718   -2.607727   -0.053335
     30          1           0       -0.788243   -3.225659    1.092492
     31          1           0       -0.780593    3.211848    1.143053
     32          1           0        0.434358    2.608650   -0.015878
     33          1           0        0.776973    2.607020    1.735167
 ---------------------------------------------------------------------
                    Distance matrix (angstroms):
                    1          2          3          4          5
     1  C    0.000000
     2  N    1.474802   0.000000
     3  C    2.315230   1.401086   0.000000
     4  C    2.315307   2.278217   1.413368   0.000000
     5  N    1.474609   2.283268   2.278285   1.401291   0.000000
     6  C    3.661928   3.591875   2.435573   1.383422   2.532060
     7  C    4.636348   4.157880   2.777940   2.398641   3.757348
     8  C    4.636289   3.757069   2.398615   2.777996   4.158109
     9  C    3.661763   2.531767   1.383430   2.435633   3.592014
    10  C    1.527950   2.516422   3.227430   3.228068   2.517118
    11  C    2.557415   3.117326   3.334853   3.332088   3.111927
    12  C    3.836282   4.426652   4.679507   4.678531   4.424343
    13  C    4.334360   5.119356   5.665669   5.667638   5.122208
    14  C    3.820742   4.779874   5.605215   5.609190   4.786760
    15  C    2.523958   3.592418   4.534492   4.538410   3.599806
    16  C    2.516748   3.657327   3.618918   2.474780   1.453225
    17  C    2.516416   1.453167   2.474646   3.618802   3.656994
    18  H    1.097016   2.114156   3.188484   3.188688   2.114436
    19  H    4.205418   4.435343   3.427424   2.158142   2.867065
    20  H    5.659900   5.243580   3.865455   3.382831   4.673968
    21  H    5.659776   4.673621   3.382776   3.865515   5.243804
    22  H    4.205139   2.866737   2.158150   3.427467   4.435403
    23  H    2.770188   2.980130   2.736457   2.728591   2.967954
    24  H    4.708385   5.137417   5.157272   5.154683   5.132611
    25  H    5.421931   6.175862   6.687788   6.689963   6.178998
    26  H    4.681876   5.669333   6.596072   6.601281   5.678503
    27  H    2.705209   3.807673   4.923909   4.929295   3.818423
    28  H    2.686400   4.039748   4.333040   3.370927   2.084248
    29  H    2.943764   4.057086   3.912995   2.817801   2.132893
    30  H    3.415568   4.365367   4.093052   2.766729   2.087662
    31  H    3.415258   2.087804   2.768341   4.094280   4.365646
    32  H    2.944563   2.132855   2.816330   3.912273   4.057061
    33  H    2.684401   2.083899   3.370547   4.332128   4.038155
                    6          7          8          9         10
     6  C    0.000000
     7  C    1.415219   0.000000
     8  C    2.439862   1.389370   0.000000
     9  C    2.843064   2.439855   1.415217   0.000000
    10  C    4.389544   5.314402   5.313940   4.388369   0.000000
    11  C    4.190528   4.915032   4.916749   4.194599   1.401834
    12  C    5.398767   6.051585   6.052174   5.400066   2.425296
    13  C    6.525279   7.302077   7.300432   6.521464   2.806632
    14  C    6.656502   7.578091   7.575087   6.649463   2.429248
    15  C    5.712146   6.697315   6.694624   5.705657   1.395513
    16  C    3.078059   4.466263   5.176964   4.847532   2.966754
    17  C    4.847447   5.176842   4.466096   3.077821   2.964533
    18  H    4.522294   5.549637   5.549522   4.522004   2.138854
    19  H    1.086862   2.180746   3.424189   3.929726   4.845377
    20  H    2.164374   1.087537   2.149837   3.423717   6.279430
    21  H    3.423771   2.149910   1.087542   2.164308   6.278677
    22  H    3.929729   3.424202   2.180770   1.086863   4.843514
    23  H    3.377945   3.932386   3.937620   3.390346   2.162478
    24  H    5.653145   6.129525   6.131491   5.657447   3.409008
    25  H    7.471934   8.200537   8.198637   7.467615   3.894212
    26  H    7.675572   8.635758   8.631735   7.666271   3.411384
    27  H    6.180066   7.230029   7.226365   6.171271   2.150396
    28  H    4.128376   5.509494   6.135190   5.652680   3.043783
    29  H    3.228529   4.524737   5.264881   5.024945   2.859904
    30  H    2.951621   4.358992   5.286274   5.197491   4.035622
    31  H    5.199068   5.288366   4.361421   2.954067   4.033870
    32  H    5.023977   5.263076   4.522208   3.225718   2.859338
    33  H    5.651856   6.134721   5.509411   4.128426   3.038598
                   11         12         13         14         15
    11  C    0.000000
    12  C    1.394269   0.000000
    13  C    2.422700   1.400000   0.000000
    14  C    2.793650   2.417148   1.394954   0.000000
    15  C    2.412064   2.785203   2.417664   1.399016   0.000000
    16  C    3.440654   4.491772   5.057344   4.749229   3.763136
    17  C    3.450332   4.495744   5.050052   4.733142   3.746821
    18  H    3.430856   4.564105   4.775624   3.954620   2.556439
    19  H    4.658114   5.764443   6.832052   6.962621   6.070700
    20  H    5.783975   6.824081   8.112647   8.474250   7.653663
    21  H    5.786510   6.824938   8.109934   8.469394   7.649406
    22  H    4.664632   5.766663   6.825685   6.950778   6.059935
    23  H    1.087158   2.149915   3.404625   3.880777   3.400452
    24  H    2.152645   1.087685   2.159856   3.403247   3.872882
    25  H    3.407469   2.160698   1.087582   2.157610   3.405512
    26  H    3.881242   3.405684   2.157960   1.087608   2.158313
    27  H    3.398208   3.874149   3.403892   2.158834   1.088947
    28  H    3.829208   4.749161   5.014246   4.445463   3.439010
    29  H    2.930353   3.776290   4.426048   4.379119   3.667555
    30  H    4.411729   5.458026   6.088026   5.823467   4.849723
    31  H    4.422901   5.463594   6.080794   5.806313   4.832905
    32  H    2.943495   3.782696   4.419353   4.363270   3.652411
    33  H    3.835591   4.750022   5.003103   4.423922   3.416940
                   16         17         18         19         20
    16  C    0.000000
    17  C    4.932861   0.000000
    18  H    2.924147   2.923180   0.000000
    19  H    2.895310   5.755530   4.976131   0.000000
    20  H    5.184149   6.251725   6.565772   2.500091   0.000000
    21  H    6.251840   5.183898   6.565565   4.320598   2.475376
    22  H    5.755562   2.894996   4.975618   5.016238   4.320553
    23  H    3.454380   3.476329   3.814490   3.941475   4.772341
    24  H    5.168622   5.178083   5.532458   5.998706   6.785038
    25  H    6.025721   6.017730   5.840623   7.738466   8.957928
    26  H    5.560096   5.538772   4.617205   7.943290   9.536579
    27  H    4.002484   3.979363   2.271127   6.517198   8.214197
    28  H    1.093684   5.202395   2.699314   3.953064   6.256473
    29  H    1.100265   5.190296   3.548749   2.995290   5.170030
    30  H    1.093826   5.740196   3.764785   2.451731   4.913008
    31  H    5.740711   1.093853   3.762891   6.190286   6.332403
    32  H    5.191026   1.100315   3.549429   5.926648   6.294060
    33  H    5.200698   1.093672   2.696939   6.474507   7.219231
                   21         22         23         24         25
    21  H    0.000000
    22  H    2.500028   0.000000
    23  H    4.779963   3.960286   0.000000
    24  H    6.788126   6.005954   2.471205   0.000000
    25  H    8.954749   7.731178   4.300488   2.488465   0.000000
    26  H    9.530017   7.927454   4.968378   4.305662   2.489813
    27  H    8.208397   6.502465   4.299894   4.961826   4.304855
    28  H    7.219706   6.475496   4.117203   5.562288   5.961011
    29  H    6.295875   5.927206   2.951228   4.332516   5.314209
    30  H    6.330271   6.188867   4.256076   6.035066   7.024640
    31  H    4.915538   2.454503   4.281255   6.047372   7.016420
    32  H    5.167047   2.991763   2.978429   4.345310   5.306682
    33  H    6.256535   3.953539   4.134460   5.568657   5.949115
                   26         27         28         29         30
    26  H    0.000000
    27  H    2.483955   0.000000
    28  H    5.092045   3.441639   0.000000
    29  H    5.244237   4.164918   1.784076   0.000000
    30  H    6.612026   5.027552   1.772628   1.784115   0.000000
    31  H    6.588235   5.002578   6.074492   6.063703   6.437710
    32  H    5.223098   4.144061   5.527102   5.216512   6.063200
    33  H    5.064164   3.410432   5.242386   5.523725   6.073144
                   31         32         33
    31  H    0.000000
    32  H    1.784118   0.000000
    33  H    1.772690   1.784250   0.000000
 Stoichiometry    C15H16N2
 Framework group  C1[X(C15H16N2)]
 Deg. of freedom    93
 Full point group                 C1      NOp   1
 Largest Abelian subgroup         C1      NOp   1
 Largest concise Abelian subgroup C1      NOp   1
                         Standard orientation:                         
 ---------------------------------------------------------------------
 Center     Atomic      Atomic             Coordinates (Angstroms)
 Number     Number       Type             X           Y           Z
 ---------------------------------------------------------------------
      1          6           0       -0.372491    0.001641   -1.298558
      2          7           0        0.545213    1.144400   -1.134353
      3          6           0        1.610274    0.708979   -0.334917
      4          6           0        1.612869   -0.704380   -0.339117
      5          7           0        0.548837   -1.138857   -1.140793
      6          6           0        2.560358   -1.419556    0.371265
      7          6           0        3.543786   -0.692988    1.083875
      8          6           0        3.541086    0.696372    1.088164
      9          6           0        2.554794    1.423489    0.380091
     10          6           0       -1.537750   -0.002104   -0.310233
     11          6           0       -1.324086   -0.013807    1.075173
     12          6           0       -2.406410   -0.015115    1.954126
     13          6           0       -3.716089   -0.004925    1.459518
     14          6           0       -3.935121    0.006642    0.081916
     15          6           0       -2.845918    0.008058   -0.796083
     16          6           0       -0.014133   -2.465333   -0.952669
     17          6           0       -0.022882    2.467500   -0.938473
     18          1           0       -0.788604    0.004228   -2.313588
     19          1           0        2.550937   -2.506224    0.389554
     20          1           0        4.300425   -1.236203    1.645260
     21          1           0        4.295520    1.239156    1.652931
     22          1           0        2.541161    2.509981    0.404985
     23          1           0       -0.311524   -0.021810    1.470860
     24          1           0       -2.230821   -0.024196    3.027506
     25          1           0       -4.558419   -0.006115    2.147495
     26          1           0       -4.949094    0.014503   -0.311389
     27          1           0       -3.016268    0.017138   -1.871584
     28          1           0       -0.813259   -2.620305   -1.683097
     29          1           0       -0.424121   -2.610416    0.057996
     30          1           0        0.761967   -3.215580   -1.129454
     31          1           0        0.749347    3.222099   -1.113855
     32          1           0       -0.430688    2.606067    0.074042
     33          1           0       -0.824623    2.622041   -1.666104
 ---------------------------------------------------------------------
 Rotational constants (GHZ):           0.8956871           0.3467725           0.3301597
 Standard basis: 6-31+G(d,p) (6D, 7F)
 There are   403 symmetry adapted cartesian basis functions of A   symmetry.
 There are   403 symmetry adapted basis functions of A   symmetry.
   403 basis functions,   656 primitive gaussians,   403 cartesian basis functions
    60 alpha electrons       60 beta electrons
       nuclear repulsion energy      1182.4746713221 Hartrees.
 NAtoms=   33 NActive=   33 NUniq=   33 SFac= 1.00D+00 NAtFMM=   60 NAOKFM=F Big=F
 Integral buffers will be    131072 words long.
 Raffenetti 2 integral format.
 Two-electron integral symmetry is turned on.
 Nuclear repulsion after empirical dispersion term =     1182.4477508679 Hartrees.
 ------------------------------------------------------------------------------
 Polarizable Continuum Model (PCM)
 =================================
 Model                : PCM.
 Atomic radii         : SMD-Coulomb.
 Polarization charges : Total charges.
 Charge compensation  : None.
 Solution method      : On-the-fly selection.
 Cavity type          : VdW (van der Waals Surface) (Alpha=1.000).
 Cavity algorithm     : GePol (No added spheres)
                        Default sphere list used, NSphG=   33.
                        Lebedev-Laikov grids with approx.  5.0 points / Ang**2.
                        Smoothing algorithm: York/Karplus (Gamma=1.0000).
                        Polarization charges: spherical gaussians, with
                                              point-specific exponents (IZeta= 3).
                        Self-potential: point-specific (ISelfS= 7).
                        Self-field    : sphere-specific E.n sum rule (ISelfD= 2).
 1st derivatives      : Analytical E(r).r(x)/FMM algorithm (CHGder, D1EAlg=3).
                        Cavity 1st derivative terms included.
 Solvent              : Acetonitrile, Eps=  35.688000 Eps(inf)=   1.806874
 ------------------------------------------------------------------------------
 ------------------------------------------------------------------------------
 Atomic radii for non-electrostatic terms: SMD-CDS.
 ------------------------------------------------------------------------------
 Nuclear repulsion after PCM non-electrostatic terms =     1182.4423886943 Hartrees.
 One-electron integrals computed using PRISM.
 NBasis=   403 RedAO= T EigKep=  1.06D-06  NBF=   403
 NBsUse=   403 1.00D-06 EigRej= -1.00D+00 NBFU=   403
 ExpMin= 4.38D-02 ExpMax= 4.17D+03 ExpMxC= 6.27D+02 IAcc=3 IRadAn=         5 AccDes= 0.00D+00
 Harris functional with IExCor= 4639 and IRadAn=       5 diagonalized for initial guess.
 HarFok:  IExCor= 4639 AccDes= 0.00D+00 IRadAn=         5 IDoV= 1 UseB2=F ITyADJ=14
 ICtDFT=  3500011 ScaDFX=  1.000000  1.000000  1.000000  1.000000
 FoFCou: FMM=F IPFlag=           0 FMFlag=      100000 FMFlg1=           0
         NFxFlg=           0 DoJE=T BraDBF=F KetDBF=T FulRan=T
         wScrn=  0.000000 ICntrl=       500 IOpCl=  0 I1Cent=   200000004 NGrid=           0
         NMat0=    1 NMatS0=      1 NMatT0=    0 NMatD0=    1 NMtDS0=    0 NMtDT0=    0
 Petite list used in FoFCou.
 Initial guess <Sx>= 0.0000 <Sy>= 0.0000 <Sz>= 0.0000 <S**2>= 0.0000 S= 0.0000
 Requested convergence on RMS density matrix=1.00D-08 within 500 cycles.
 Requested convergence on MAX density matrix=1.00D-06.
 Requested convergence on             energy=1.00D-06.
 No special actions if energy rises.
 Inv3:  Mode=1 IEnd=    17337648.
 Iteration    1 A*A^-1 deviation from unit magnitude is 4.44D-15 for   2398.
 Iteration    1 A*A^-1 deviation from orthogonality  is 3.84D-15 for   2103     98.
 Iteration    1 A^-1*A deviation from unit magnitude is 4.66D-15 for   2389.
 Iteration    1 A^-1*A deviation from orthogonality  is 1.85D-15 for   2400   1885.
 Error on total polarization charges =  0.06233
 SCF Done:  E(UwB97XD) =  -690.564132142     A.U. after   17 cycles
            NFock= 17  Conv=0.36D-08     -V/T= 2.0097
 <Sx>= 0.0000 <Sy>= 0.0000 <Sz>= 0.0000 <S**2>=-0.0000 S=-0.0000
 <L.S>= 0.000000000000E+00
 SMD-CDS (non-electrostatic) energy       (kcal/mol) =      -3.36
 (included in total energy above)
 Annihilation of the first spin contaminant:
 S**2 before annihilation    -0.0000,   after     0.0000

 **********************************************************************

            Population analysis using the SCF Density.

 **********************************************************************

 Orbital symmetries:
 Alpha Orbitals:
       Occupied  (A) (A) (A) (A) (A) (A) (A) (A) (A) (A) (A) (A)
                 (A) (A) (A) (A) (A) (A) (A) (A) (A) (A) (A) (A)
                 (A) (A) (A) (A) (A) (A) (A) (A) (A) (A) (A) (A)
                 (A) (A) (A) (A) (A) (A) (A) (A) (A) (A) (A) (A)
                 (A) (A) (A) (A) (A) (A) (A) (A) (A) (A) (A) (A)
       Virtual   (A) (A) (A) (A) (A) (A) (A) (A) (A) (A) (A) (A)
                 (A) (A) (A) (A) (A) (A) (A) (A) (A) (A) (A) (A)
                 (A) (A) (A) (A) (A) (A) (A) (A) (A) (A) (A) (A)
                 (A) (A) (A) (A) (A) (A) (A) (A) (A) (A) (A) (A)
                 (A) (A) (A) (A) (A) (A) (A) (A) (A) (A) (A) (A)
                 (A) (A) (A) (A) (A) (A) (A) (A) (A) (A) (A) (A)
                 (A) (A) (A) (A) (A) (A) (A) (A) (A) (A) (A) (A)
                 (A) (A) (A) (A) (A) (A) (A) (A) (A) (A) (A) (A)
                 (A) (A) (A) (A) (A) (A) (A) (A) (A) (A) (A) (A)
                 (A) (A) (A) (A) (A) (A) (A) (A) (A) (A) (A) (A)
                 (A) (A) (A) (A) (A) (A) (A) (A) (A) (A) (A) (A)
                 (A) (A) (A) (A) (A) (A) (A) (A) (A) (A) (A) (A)
                 (A) (A) (A) (A) (A) (A) (A) (A) (A) (A) (A) (A)
                 (A) (A) (A) (A) (A) (A) (A) (A) (A) (A) (A) (A)
                 (A) (A) (A) (A) (A) (A) (A) (A) (A) (A) (A) (A)
                 (A) (A) (A) (A) (A) (A) (A) (A) (A) (A) (A) (A)
                 (A) (A) (A) (A) (A) (A) (A) (A) (A) (A) (A) (A)
                 (A) (A) (A) (A) (A) (A) (A) (A) (A) (A) (A) (A)
                 (A) (A) (A) (A) (A) (A) (A) (A) (A) (A) (A) (A)
                 (A) (A) (A) (A) (A) (A) (A) (A) (A) (A) (A) (A)
                 (A) (A) (A) (A) (A) (A) (A) (A) (A) (A) (A) (A)
                 (A) (A) (A) (A) (A) (A) (A) (A) (A) (A) (A) (A)
                 (A) (A) (A) (A) (A) (A) (A) (A) (A) (A) (A) (A)
                 (A) (A) (A) (A) (A) (A) (A) (A) (A) (A) (A) (A)
                 (A) (A) (A) (A) (A) (A) (A) (A) (A) (A) (A) (A)
                 (A) (A) (A) (A) (A) (A) (A) (A) (A) (A) (A) (A)
                 (A) (A) (A) (A) (A) (A) (A) (A) (A) (A) (A) (A)
                 (A) (A) (A) (A) (A) (A) (A) (A) (A) (A) (A) (A)
                 (A) (A) (A) (A) (A) (A) (A)
 Beta  Orbitals:
       Occupied  (A) (A) (A) (A) (A) (A) (A) (A) (A) (A) (A) (A)
                 (A) (A) (A) (A) (A) (A) (A) (A) (A) (A) (A) (A)
                 (A) (A) (A) (A) (A) (A) (A) (A) (A) (A) (A) (A)
                 (A) (A) (A) (A) (A) (A) (A) (A) (A) (A) (A) (A)
                 (A) (A) (A) (A) (A) (A) (A) (A) (A) (A) (A) (A)
       Virtual   (A) (A) (A) (A) (A) (A) (A) (A) (A) (A) (A) (A)
                 (A) (A) (A) (A) (A) (A) (A) (A) (A) (A) (A) (A)
                 (A) (A) (A) (A) (A) (A) (A) (A) (A) (A) (A) (A)
                 (A) (A) (A) (A) (A) (A) (A) (A) (A) (A) (A) (A)
                 (A) (A) (A) (A) (A) (A) (A) (A) (A) (A) (A) (A)
                 (A) (A) (A) (A) (A) (A) (A) (A) (A) (A) (A) (A)
                 (A) (A) (A) (A) (A) (A) (A) (A) (A) (A) (A) (A)
                 (A) (A) (A) (A) (A) (A) (A) (A) (A) (A) (A) (A)
                 (A) (A) (A) (A) (A) (A) (A) (A) (A) (A) (A) (A)
                 (A) (A) (A) (A) (A) (A) (A) (A) (A) (A) (A) (A)
                 (A) (A) (A) (A) (A) (A) (A) (A) (A) (A) (A) (A)
                 (A) (A) (A) (A) (A) (A) (A) (A) (A) (A) (A) (A)
                 (A) (A) (A) (A) (A) (A) (A) (A) (A) (A) (A) (A)
                 (A) (A) (A) (A) (A) (A) (A) (A) (A) (A) (A) (A)
                 (A) (A) (A) (A) (A) (A) (A) (A) (A) (A) (A) (A)
                 (A) (A) (A) (A) (A) (A) (A) (A) (A) (A) (A) (A)
                 (A) (A) (A) (A) (A) (A) (A) (A) (A) (A) (A) (A)
                 (A) (A) (A) (A) (A) (A) (A) (A) (A) (A) (A) (A)
                 (A) (A) (A) (A) (A) (A) (A) (A) (A) (A) (A) (A)
                 (A) (A) (A) (A) (A) (A) (A) (A) (A) (A) (A) (A)
                 (A) (A) (A) (A) (A) (A) (A) (A) (A) (A) (A) (A)
                 (A) (A) (A) (A) (A) (A) (A) (A) (A) (A) (A) (A)
                 (A) (A) (A) (A) (A) (A) (A) (A) (A) (A) (A) (A)
                 (A) (A) (A) (A) (A) (A) (A) (A) (A) (A) (A) (A)
                 (A) (A) (A) (A) (A) (A) (A) (A) (A) (A) (A) (A)
                 (A) (A) (A) (A) (A) (A) (A) (A) (A) (A) (A) (A)
                 (A) (A) (A) (A) (A) (A) (A) (A) (A) (A) (A) (A)
                 (A) (A) (A) (A) (A) (A) (A) (A) (A) (A) (A) (A)
                 (A) (A) (A) (A) (A) (A) (A)
 The electronic state is 1-A.
 Alpha  occ. eigenvalues --  -14.47143 -14.47140 -10.36960 -10.33416 -10.33365
 Alpha  occ. eigenvalues --  -10.31688 -10.31687 -10.31057 -10.30745 -10.30719
 Alpha  occ. eigenvalues --  -10.30668 -10.30639 -10.30594 -10.29792 -10.29792
 Alpha  occ. eigenvalues --  -10.29620 -10.29561  -1.09928  -1.00247  -0.96281
 Alpha  occ. eigenvalues --   -0.94235  -0.86827  -0.84751  -0.84424  -0.83921
 Alpha  occ. eigenvalues --   -0.81294  -0.76204  -0.73975  -0.70154  -0.68463
 Alpha  occ. eigenvalues --   -0.67989  -0.66547  -0.61319  -0.59569  -0.58575
 Alpha  occ. eigenvalues --   -0.57287  -0.56010  -0.53459  -0.53290  -0.52858
 Alpha  occ. eigenvalues --   -0.51974  -0.51555  -0.50398  -0.49849  -0.49821
 Alpha  occ. eigenvalues --   -0.47826  -0.46859  -0.45747  -0.45623  -0.45394
 Alpha  occ. eigenvalues --   -0.43367  -0.43275  -0.42087  -0.41968  -0.37171
 Alpha  occ. eigenvalues --   -0.36995  -0.33459  -0.33164  -0.29936  -0.24957
 Alpha virt. eigenvalues --    0.04188   0.05353   0.06196   0.06746   0.07846
 Alpha virt. eigenvalues --    0.07887   0.08150   0.08257   0.09474   0.09654
 Alpha virt. eigenvalues --    0.09887   0.10330   0.11107   0.11220   0.12140
 Alpha virt. eigenvalues --    0.12421   0.12557   0.13276   0.13294   0.14154
 Alpha virt. eigenvalues --    0.14544   0.15169   0.15562   0.16125   0.16293
 Alpha virt. eigenvalues --    0.17740   0.18324   0.18624   0.18784   0.18905
 Alpha virt. eigenvalues --    0.19832   0.19938   0.20519   0.20790   0.21432
 Alpha virt. eigenvalues --    0.21673   0.22030   0.22233   0.22477   0.22899
 Alpha virt. eigenvalues --    0.23335   0.23479   0.23888   0.24609   0.24624
 Alpha virt. eigenvalues --    0.24815   0.25190   0.26087   0.26468   0.26964
 Alpha virt. eigenvalues --    0.27047   0.27282   0.27600   0.28301   0.28357
 Alpha virt. eigenvalues --    0.28885   0.29029   0.29127   0.29709   0.29996
 Alpha virt. eigenvalues --    0.30504   0.31138   0.31583   0.31592   0.32059
 Alpha virt. eigenvalues --    0.32551   0.32909   0.33079   0.33120   0.33398
 Alpha virt. eigenvalues --    0.33811   0.34518   0.35614   0.36110   0.36169
 Alpha virt. eigenvalues --    0.36470   0.36998   0.37187   0.37655   0.37928
 Alpha virt. eigenvalues --    0.38014   0.38250   0.38996   0.39479   0.39640
 Alpha virt. eigenvalues --    0.39844   0.40572   0.42131   0.42762   0.43096
 Alpha virt. eigenvalues --    0.43413   0.44174   0.45477   0.46679   0.47051
 Alpha virt. eigenvalues --    0.47073   0.48632   0.49363   0.50554   0.51006
 Alpha virt. eigenvalues --    0.52732   0.53494   0.55085   0.56057   0.57123
 Alpha virt. eigenvalues --    0.66403   0.67379   0.70676   0.71367   0.75631
 Alpha virt. eigenvalues --    0.76264   0.76761   0.78038   0.78176   0.78473
 Alpha virt. eigenvalues --    0.78566   0.80551   0.80845   0.81166   0.81891
 Alpha virt. eigenvalues --    0.82142   0.83079   0.83622   0.84601   0.85032
 Alpha virt. eigenvalues --    0.87168   0.87726   0.88736   0.88827   0.88961
 Alpha virt. eigenvalues --    0.90535   0.91696   0.91714   0.94831   0.95925
 Alpha virt. eigenvalues --    0.96248   0.96830   0.98338   0.99443   1.00034
 Alpha virt. eigenvalues --    1.00492   1.01290   1.02399   1.03167   1.03552
 Alpha virt. eigenvalues --    1.04371   1.06067   1.06980   1.07288   1.08558
 Alpha virt. eigenvalues --    1.08736   1.09714   1.10773   1.11853   1.12122
 Alpha virt. eigenvalues --    1.12790   1.14269   1.14317   1.15936   1.17132
 Alpha virt. eigenvalues --    1.17983   1.19378   1.20395   1.21841   1.22045
 Alpha virt. eigenvalues --    1.24099   1.25176   1.25854   1.26610   1.26711
 Alpha virt. eigenvalues --    1.28142   1.29428   1.30977   1.32803   1.33378
 Alpha virt. eigenvalues --    1.34779   1.35108   1.36220   1.37332   1.39828
 Alpha virt. eigenvalues --    1.39846   1.43138   1.45101   1.46187   1.47577
 Alpha virt. eigenvalues --    1.47822   1.48818   1.48989   1.50151   1.50358
 Alpha virt. eigenvalues --    1.50894   1.51535   1.52936   1.53773   1.55034
 Alpha virt. eigenvalues --    1.58936   1.62661   1.64691   1.68358   1.70975
 Alpha virt. eigenvalues --    1.71624   1.73023   1.80161   1.83745   1.85582
 Alpha virt. eigenvalues --    1.85833   1.89276   1.89602   1.92755   1.93563
 Alpha virt. eigenvalues --    1.94276   1.96756   1.98503   1.98855   1.99457
 Alpha virt. eigenvalues --    2.00780   2.00837   2.02051   2.03221   2.04021
 Alpha virt. eigenvalues --    2.05265   2.07307   2.07818   2.09353   2.09645
 Alpha virt. eigenvalues --    2.10390   2.11125   2.11633   2.11647   2.11994
 Alpha virt. eigenvalues --    2.12668   2.14527   2.14833   2.15742   2.16195
 Alpha virt. eigenvalues --    2.17037   2.18047   2.21266   2.22960   2.23503
 Alpha virt. eigenvalues --    2.24727   2.25110   2.28109   2.30962   2.33274
 Alpha virt. eigenvalues --    2.36468   2.36625   2.37981   2.38930   2.39205
 Alpha virt. eigenvalues --    2.40201   2.40949   2.45282   2.46628   2.48438
 Alpha virt. eigenvalues --    2.49154   2.49300   2.49942   2.50325   2.51033
 Alpha virt. eigenvalues --    2.53906   2.55380   2.56485   2.58064   2.58084
 Alpha virt. eigenvalues --    2.61160   2.61824   2.62039   2.63815   2.65201
 Alpha virt. eigenvalues --    2.66040   2.66107   2.67593   2.68803   2.69119
 Alpha virt. eigenvalues --    2.69466   2.70392   2.71639   2.71919   2.74818
 Alpha virt. eigenvalues --    2.76275   2.76864   2.78892   2.80327   2.81832
 Alpha virt. eigenvalues --    2.82624   2.83502   2.84727   2.87090   2.89052
 Alpha virt. eigenvalues --    2.89096   2.90329   2.90399   2.91098   2.93061
 Alpha virt. eigenvalues --    2.98011   3.00766   3.00800   3.05226   3.09130
 Alpha virt. eigenvalues --    3.10550   3.10927   3.17483   3.18934   3.21279
 Alpha virt. eigenvalues --    3.28337   3.29425   3.32986   3.37158   3.37891
 Alpha virt. eigenvalues --    3.38139   3.38725   3.39352   3.45246   3.48015
 Alpha virt. eigenvalues --    3.49701   3.53391   3.58015   3.58088   3.59016
 Alpha virt. eigenvalues --    3.59874   3.60920   3.62708   3.64981   3.96150
 Alpha virt. eigenvalues --    4.00029   4.40139   4.42159   4.43436   4.46519
 Alpha virt. eigenvalues --    4.52882   4.55611   4.56633   4.60052   4.63419
 Alpha virt. eigenvalues --    4.67660   4.68138   4.73096   4.73704   4.74318
 Alpha virt. eigenvalues --    4.86972   4.99778   5.00732
  Beta  occ. eigenvalues --  -14.47143 -14.47140 -10.36960 -10.33416 -10.33365
  Beta  occ. eigenvalues --  -10.31688 -10.31687 -10.31057 -10.30745 -10.30719
  Beta  occ. eigenvalues --  -10.30668 -10.30639 -10.30594 -10.29792 -10.29792
  Beta  occ. eigenvalues --  -10.29620 -10.29561  -1.09928  -1.00247  -0.96281
  Beta  occ. eigenvalues --   -0.94235  -0.86827  -0.84751  -0.84424  -0.83921
  Beta  occ. eigenvalues --   -0.81294  -0.76204  -0.73975  -0.70154  -0.68463
  Beta  occ. eigenvalues --   -0.67989  -0.66547  -0.61319  -0.59569  -0.58575
  Beta  occ. eigenvalues --   -0.57287  -0.56010  -0.53459  -0.53290  -0.52858
  Beta  occ. eigenvalues --   -0.51974  -0.51555  -0.50398  -0.49849  -0.49821
  Beta  occ. eigenvalues --   -0.47826  -0.46859  -0.45747  -0.45623  -0.45394
  Beta  occ. eigenvalues --   -0.43367  -0.43275  -0.42087  -0.41968  -0.37171
  Beta  occ. eigenvalues --   -0.36995  -0.33459  -0.33164  -0.29936  -0.24957
  Beta virt. eigenvalues --    0.04188   0.05353   0.06196   0.06746   0.07846
  Beta virt. eigenvalues --    0.07887   0.08150   0.08257   0.09474   0.09654
  Beta virt. eigenvalues --    0.09887   0.10330   0.11107   0.11220   0.12140
  Beta virt. eigenvalues --    0.12421   0.12557   0.13276   0.13294   0.14154
  Beta virt. eigenvalues --    0.14544   0.15169   0.15562   0.16125   0.16293
  Beta virt. eigenvalues --    0.17740   0.18324   0.18624   0.18784   0.18905
  Beta virt. eigenvalues --    0.19832   0.19938   0.20519   0.20790   0.21432
  Beta virt. eigenvalues --    0.21673   0.22030   0.22233   0.22477   0.22899
  Beta virt. eigenvalues --    0.23335   0.23479   0.23888   0.24609   0.24624
  Beta virt. eigenvalues --    0.24815   0.25190   0.26087   0.26468   0.26964
  Beta virt. eigenvalues --    0.27047   0.27282   0.27600   0.28301   0.28357
  Beta virt. eigenvalues --    0.28885   0.29029   0.29127   0.29709   0.29996
  Beta virt. eigenvalues --    0.30504   0.31138   0.31583   0.31592   0.32059
  Beta virt. eigenvalues --    0.32551   0.32909   0.33079   0.33120   0.33398
  Beta virt. eigenvalues --    0.33811   0.34518   0.35614   0.36110   0.36169
  Beta virt. eigenvalues --    0.36470   0.36998   0.37187   0.37655   0.37928
  Beta virt. eigenvalues --    0.38014   0.38250   0.38996   0.39479   0.39640
  Beta virt. eigenvalues --    0.39844   0.40572   0.42131   0.42762   0.43096
  Beta virt. eigenvalues --    0.43413   0.44174   0.45477   0.46679   0.47051
  Beta virt. eigenvalues --    0.47073   0.48632   0.49363   0.50554   0.51006
  Beta virt. eigenvalues --    0.52732   0.53494   0.55085   0.56057   0.57123
  Beta virt. eigenvalues --    0.66403   0.67379   0.70676   0.71367   0.75631
  Beta virt. eigenvalues --    0.76264   0.76761   0.78038   0.78176   0.78473
  Beta virt. eigenvalues --    0.78566   0.80551   0.80845   0.81166   0.81891
  Beta virt. eigenvalues --    0.82142   0.83079   0.83622   0.84601   0.85032
  Beta virt. eigenvalues --    0.87168   0.87726   0.88736   0.88827   0.88961
  Beta virt. eigenvalues --    0.90535   0.91696   0.91714   0.94831   0.95925
  Beta virt. eigenvalues --    0.96248   0.96830   0.98338   0.99443   1.00034
  Beta virt. eigenvalues --    1.00492   1.01290   1.02399   1.03167   1.03552
  Beta virt. eigenvalues --    1.04371   1.06067   1.06980   1.07288   1.08558
  Beta virt. eigenvalues --    1.08736   1.09714   1.10773   1.11853   1.12122
  Beta virt. eigenvalues --    1.12790   1.14269   1.14317   1.15936   1.17132
  Beta virt. eigenvalues --    1.17983   1.19378   1.20395   1.21841   1.22045
  Beta virt. eigenvalues --    1.24099   1.25176   1.25854   1.26610   1.26711
  Beta virt. eigenvalues --    1.28142   1.29428   1.30977   1.32803   1.33378
  Beta virt. eigenvalues --    1.34779   1.35108   1.36220   1.37332   1.39828
  Beta virt. eigenvalues --    1.39846   1.43138   1.45101   1.46187   1.47577
  Beta virt. eigenvalues --    1.47822   1.48818   1.48989   1.50151   1.50358
  Beta virt. eigenvalues --    1.50894   1.51535   1.52936   1.53773   1.55034
  Beta virt. eigenvalues --    1.58936   1.62661   1.64691   1.68358   1.70975
  Beta virt. eigenvalues --    1.71624   1.73023   1.80161   1.83745   1.85582
  Beta virt. eigenvalues --    1.85833   1.89276   1.89602   1.92755   1.93563
  Beta virt. eigenvalues --    1.94276   1.96756   1.98503   1.98855   1.99457
  Beta virt. eigenvalues --    2.00780   2.00837   2.02051   2.03221   2.04021
  Beta virt. eigenvalues --    2.05265   2.07307   2.07818   2.09353   2.09645
  Beta virt. eigenvalues --    2.10390   2.11125   2.11633   2.11647   2.11994
  Beta virt. eigenvalues --    2.12668   2.14527   2.14833   2.15742   2.16195
  Beta virt. eigenvalues --    2.17037   2.18047   2.21266   2.22960   2.23503
  Beta virt. eigenvalues --    2.24727   2.25110   2.28109   2.30962   2.33274
  Beta virt. eigenvalues --    2.36468   2.36625   2.37981   2.38930   2.39205
  Beta virt. eigenvalues --    2.40201   2.40949   2.45282   2.46628   2.48438
  Beta virt. eigenvalues --    2.49154   2.49300   2.49942   2.50325   2.51033
  Beta virt. eigenvalues --    2.53906   2.55380   2.56485   2.58064   2.58084
  Beta virt. eigenvalues --    2.61160   2.61824   2.62039   2.63815   2.65201
  Beta virt. eigenvalues --    2.66040   2.66107   2.67593   2.68803   2.69119
  Beta virt. eigenvalues --    2.69466   2.70392   2.71639   2.71919   2.74818
  Beta virt. eigenvalues --    2.76275   2.76864   2.78892   2.80327   2.81832
  Beta virt. eigenvalues --    2.82624   2.83502   2.84727   2.87090   2.89052
  Beta virt. eigenvalues --    2.89096   2.90329   2.90399   2.91098   2.93061
  Beta virt. eigenvalues --    2.98011   3.00766   3.00800   3.05226   3.09130
  Beta virt. eigenvalues --    3.10550   3.10927   3.17483   3.18934   3.21279
  Beta virt. eigenvalues --    3.28337   3.29425   3.32986   3.37158   3.37891
  Beta virt. eigenvalues --    3.38139   3.38725   3.39352   3.45246   3.48015
  Beta virt. eigenvalues --    3.49701   3.53391   3.58015   3.58088   3.59016
  Beta virt. eigenvalues --    3.59874   3.60920   3.62708   3.64981   3.96150
  Beta virt. eigenvalues --    4.00029   4.40139   4.42159   4.43436   4.46519
  Beta virt. eigenvalues --    4.52882   4.55611   4.56633   4.60052   4.63419
  Beta virt. eigenvalues --    4.67660   4.68138   4.73096   4.73704   4.74318
  Beta virt. eigenvalues --    4.86972   4.99778   5.00732
          Condensed to atoms (all electrons):
               1          2          3          4          5          6
     1  C   25.645390  -1.604383  -1.845670  -2.053809  -1.569528  -0.230901
     2  N   -1.604383   7.962045  -1.500241   1.345808  -0.240052  -0.502088
     3  C   -1.845670  -1.500241  19.550963  -5.710814   1.324686   0.297789
     4  C   -2.053809   1.345808  -5.710814  19.704149  -1.503257  -5.867430
     5  N   -1.569528  -0.240052   1.324686  -1.503257   7.961593   0.530339
     6  C   -0.230901  -0.502088   0.297789  -5.867430   0.530339  13.092044
     7  C   -0.080916   0.144639  -1.468520   0.828397  -0.059491  -0.402524
     8  C   -0.057921  -0.063855   0.834512  -1.482810   0.144475   0.769045
     9  C   -0.303578   0.532819  -5.784262   0.335782  -0.495343  -2.141980
    10  C   -8.610137   0.400232   0.613418   0.684555   0.380818   0.197025
    11  C   -4.795237   0.988159   0.060833   0.098794   0.996712  -0.464505
    12  C    0.253810  -0.137744   0.143721   0.120566  -0.124978   0.139205
    13  C   -0.588795   0.050712  -0.001026   0.003453   0.049500   0.007452
    14  C   -0.238980   0.048366  -0.028421  -0.031778   0.047263  -0.030935
    15  C    2.813262  -0.300496  -0.241782  -0.232466  -0.318130   0.277027
    16  C    0.071134  -0.144264   0.545917  -1.009243   0.256182   0.310450
    17  C    0.058445   0.257533  -1.006370   0.548483  -0.143539  -0.117145
    18  H   -0.095834   0.034328   0.017045   0.016961   0.033783   0.006826
    19  H   -0.000631  -0.000234   0.068856   0.139095  -0.006765   0.114976
    20  H    0.003687   0.000445  -0.012740   0.009368  -0.001127   0.011065
    21  H    0.003641  -0.001129   0.009558  -0.012947   0.000453   0.012260
    22  H   -0.001100  -0.006941   0.139766   0.068890  -0.000233  -0.006705
    23  H    0.191771  -0.008206   0.007625  -0.002342  -0.007117  -0.012001
    24  H    0.002709  -0.000192  -0.000631  -0.000709  -0.000182   0.000527
    25  H   -0.000709  -0.000000   0.000091   0.000121  -0.000002  -0.000004
    26  H    0.003120  -0.000131  -0.000220  -0.000235  -0.000129   0.000033
    27  H   -0.034026   0.000726  -0.001694  -0.001281   0.000553   0.000816
    28  H   -0.030504  -0.002268   0.070729   0.011462  -0.045246  -0.071089
    29  H   -0.007291   0.005540  -0.076641   0.011944  -0.079682   0.089864
    30  H    0.026960  -0.004448  -0.004345  -0.079796  -0.040321   0.040002
    31  H    0.026147  -0.040235  -0.080614  -0.004006  -0.004471  -0.007219
    32  H   -0.005654  -0.079480   0.011636  -0.076621   0.005570   0.008644
    33  H   -0.030113  -0.045327   0.011552   0.070685  -0.002286   0.003781
               7          8          9         10         11         12
     1  C   -0.080916  -0.057921  -0.303578  -8.610137  -4.795237   0.253810
     2  N    0.144639  -0.063855   0.532819   0.400232   0.988159  -0.137744
     3  C   -1.468520   0.834512  -5.784262   0.613418   0.060833   0.143721
     4  C    0.828397  -1.482810   0.335782   0.684555   0.098794   0.120566
     5  N   -0.059491   0.144475  -0.495343   0.380818   0.996712  -0.124978
     6  C   -0.402524   0.769045  -2.141980   0.197025  -0.464505   0.139205
     7  C    6.118816   0.138563   0.761864  -0.032420   0.089315   0.022038
     8  C    0.138563   6.120670  -0.409285  -0.038561   0.083758   0.025527
     9  C    0.761864  -0.409285  13.014269   0.218448  -0.433209   0.116054
    10  C   -0.032420  -0.038561   0.218448  23.586607   0.043271  -1.988953
    11  C    0.089315   0.083758  -0.433209   0.043271  25.460192  -0.854410
    12  C    0.022038   0.025527   0.116054  -1.988953  -0.854410  12.467564
    13  C    0.002032   0.001611   0.009787  -1.506576   0.129116   0.336225
    14  C    0.000562   0.000616  -0.030130  -0.775716   0.128486   0.116659
    15  C   -0.008391  -0.009274   0.280281  -7.895463 -15.045969  -4.285241
    16  C   -0.063149   0.049428  -0.117931  -0.072205  -0.074514   0.053985
    17  C    0.048706  -0.063622   0.307141  -0.066389  -0.075867   0.047623
    18  H    0.000969   0.000878   0.007700  -0.035491  -0.133146  -0.050454
    19  H    0.022003  -0.009678  -0.007006  -0.002126   0.005812   0.002055
    20  H    0.298940   0.008838   0.012155  -0.000588  -0.000445  -0.000033
    21  H    0.008891   0.298870   0.011019  -0.000619  -0.000409  -0.000030
    22  H   -0.009903   0.022321   0.114425  -0.001716   0.005599   0.001995
    23  H   -0.007356  -0.006418  -0.015394   0.130004   0.112478  -0.169835
    24  H    0.000131   0.000136   0.000467   0.060222   0.024282   0.237995
    25  H    0.000001  -0.000001   0.000002   0.010410   0.000776   0.008627
    26  H    0.000000   0.000001   0.000034  -0.003768  -0.006710  -0.000906
    27  H    0.000063   0.000065   0.000843   0.084967   0.009634   0.013442
    28  H   -0.005994  -0.000200   0.003802   0.026931  -0.007761  -0.011799
    29  H    0.014981  -0.000597   0.008411  -0.026342   0.018996   0.061878
    30  H    0.001740   0.001698  -0.007102  -0.002520  -0.006633  -0.003458
    31  H    0.001738   0.001739   0.040862  -0.002332  -0.006724  -0.003523
    32  H   -0.000617   0.015083   0.089154  -0.027079   0.019742   0.062307
    33  H   -0.000196  -0.005998  -0.070807   0.026996  -0.008424  -0.011663
              13         14         15         16         17         18
     1  C   -0.588795  -0.238980   2.813262   0.071134   0.058445  -0.095834
     2  N    0.050712   0.048366  -0.300496  -0.144264   0.257533   0.034328
     3  C   -0.001026  -0.028421  -0.241782   0.545917  -1.006370   0.017045
     4  C    0.003453  -0.031778  -0.232466  -1.009243   0.548483   0.016961
     5  N    0.049500   0.047263  -0.318130   0.256182  -0.143539   0.033783
     6  C    0.007452  -0.030935   0.277027   0.310450  -0.117145   0.006826
     7  C    0.002032   0.000562  -0.008391  -0.063149   0.048706   0.000969
     8  C    0.001611   0.000616  -0.009274   0.049428  -0.063622   0.000878
     9  C    0.009787  -0.030130   0.280281  -0.117931   0.307141   0.007700
    10  C   -1.506576  -0.775716  -7.895463  -0.072205  -0.066389  -0.035491
    11  C    0.129116   0.128486 -15.045969  -0.074514  -0.075867  -0.133146
    12  C    0.336225   0.116659  -4.285241   0.053985   0.047623  -0.050454
    13  C    5.824962   0.619705   0.934296  -0.001708  -0.001130   0.017918
    14  C    0.619705   6.414620  -0.256192  -0.007601  -0.006841   0.043832
    15  C    0.934296  -0.256192  29.381994  -0.017925  -0.009593   0.389026
    16  C   -0.001708  -0.007601  -0.017925   5.291079  -0.043692  -0.005668
    17  C   -0.001130  -0.006841  -0.009593  -0.043692   5.291398  -0.005504
    18  H    0.017918   0.043832   0.389026  -0.005668  -0.005504   0.582183
    19  H   -0.000081   0.000135  -0.001951  -0.000916   0.000156  -0.000001
    20  H   -0.000010   0.000002   0.000025  -0.000100   0.000173  -0.000000
    21  H   -0.000009   0.000002   0.000022   0.000172  -0.000099  -0.000000
    22  H   -0.000075   0.000131  -0.001935   0.000163  -0.000994  -0.000001
    23  H   -0.028390  -0.004865   0.128213   0.002611   0.002443  -0.000050
    24  H   -0.017465  -0.015412   0.035729  -0.000032  -0.000028   0.000002
    25  H    0.289762   0.034964  -0.015777  -0.000086  -0.000087  -0.000000
    26  H    0.014349   0.280858   0.041485  -0.000100  -0.000101   0.000003
    27  H   -0.009538   0.064540   0.184470   0.001727   0.001910   0.003404
    28  H    0.001925   0.002649   0.013568   0.405656  -0.000905   0.002223
    29  H   -0.000648  -0.003254  -0.059665   0.395908   0.002350  -0.000675
    30  H    0.000070   0.000568   0.010101   0.428892  -0.000714   0.000173
    31  H    0.000087   0.000600   0.010432  -0.000718   0.428922   0.000176
    32  H   -0.000683  -0.003500  -0.060896   0.002355   0.395879  -0.000672
    33  H    0.001854   0.002727   0.013607  -0.000900   0.405440   0.002218
              19         20         21         22         23         24
     1  C   -0.000631   0.003687   0.003641  -0.001100   0.191771   0.002709
     2  N   -0.000234   0.000445  -0.001129  -0.006941  -0.008206  -0.000192
     3  C    0.068856  -0.012740   0.009558   0.139766   0.007625  -0.000631
     4  C    0.139095   0.009368  -0.012947   0.068890  -0.002342  -0.000709
     5  N   -0.006765  -0.001127   0.000453  -0.000233  -0.007117  -0.000182
     6  C    0.114976   0.011065   0.012260  -0.006705  -0.012001   0.000527
     7  C    0.022003   0.298940   0.008891  -0.009903  -0.007356   0.000131
     8  C   -0.009678   0.008838   0.298870   0.022321  -0.006418   0.000136
     9  C   -0.007006   0.012155   0.011019   0.114425  -0.015394   0.000467
    10  C   -0.002126  -0.000588  -0.000619  -0.001716   0.130004   0.060222
    11  C    0.005812  -0.000445  -0.000409   0.005599   0.112478   0.024282
    12  C    0.002055  -0.000033  -0.000030   0.001995  -0.169835   0.237995
    13  C   -0.000081  -0.000010  -0.000009  -0.000075  -0.028390  -0.017465
    14  C    0.000135   0.000002   0.000002   0.000131  -0.004865  -0.015412
    15  C   -0.001951   0.000025   0.000022  -0.001935   0.128213   0.035729
    16  C   -0.000916  -0.000100   0.000172   0.000163   0.002611  -0.000032
    17  C    0.000156   0.000173  -0.000099  -0.000994   0.002443  -0.000028
    18  H   -0.000001  -0.000000  -0.000000  -0.000001  -0.000050   0.000002
    19  H    0.496671  -0.003127  -0.000115   0.000012  -0.000005  -0.000000
    20  H   -0.003127   0.497718  -0.003541  -0.000115  -0.000001  -0.000000
    21  H   -0.000115  -0.003541   0.497735  -0.003130  -0.000001  -0.000000
    22  H    0.000012  -0.000115  -0.003130   0.496610  -0.000005  -0.000000
    23  H   -0.000005  -0.000001  -0.000001  -0.000005   0.505483  -0.004164
    24  H   -0.000000  -0.000000  -0.000000  -0.000000  -0.004164   0.487438
    25  H    0.000000   0.000000   0.000000   0.000000  -0.000115  -0.003527
    26  H   -0.000000  -0.000000  -0.000000  -0.000000   0.000011  -0.000113
    27  H   -0.000000   0.000000   0.000000  -0.000000  -0.000119   0.000011
    28  H    0.000012  -0.000000  -0.000000  -0.000000  -0.000004   0.000000
    29  H   -0.000196   0.000000   0.000000   0.000000  -0.000217  -0.000018
    30  H   -0.000446   0.000001   0.000000   0.000000  -0.000003   0.000000
    31  H    0.000000   0.000000   0.000001  -0.000459  -0.000002   0.000000
    32  H    0.000000   0.000000   0.000000  -0.000197  -0.000212  -0.000017
    33  H   -0.000000  -0.000000  -0.000000   0.000012  -0.000004   0.000000
              25         26         27         28         29         30
     1  C   -0.000709   0.003120  -0.034026  -0.030504  -0.007291   0.026960
     2  N   -0.000000  -0.000131   0.000726  -0.002268   0.005540  -0.004448
     3  C    0.000091  -0.000220  -0.001694   0.070729  -0.076641  -0.004345
     4  C    0.000121  -0.000235  -0.001281   0.011462   0.011944  -0.079796
     5  N   -0.000002  -0.000129   0.000553  -0.045246  -0.079682  -0.040321
     6  C   -0.000004   0.000033   0.000816  -0.071089   0.089864   0.040002
     7  C    0.000001   0.000000   0.000063  -0.005994   0.014981   0.001740
     8  C   -0.000001   0.000001   0.000065  -0.000200  -0.000597   0.001698
     9  C    0.000002   0.000034   0.000843   0.003802   0.008411  -0.007102
    10  C    0.010410  -0.003768   0.084967   0.026931  -0.026342  -0.002520
    11  C    0.000776  -0.006710   0.009634  -0.007761   0.018996  -0.006633
    12  C    0.008627  -0.000906   0.013442  -0.011799   0.061878  -0.003458
    13  C    0.289762   0.014349  -0.009538   0.001925  -0.000648   0.000070
    14  C    0.034964   0.280858   0.064540   0.002649  -0.003254   0.000568
    15  C   -0.015777   0.041485   0.184470   0.013568  -0.059665   0.010101
    16  C   -0.000086  -0.000100   0.001727   0.405656   0.395908   0.428892
    17  C   -0.000087  -0.000101   0.001910  -0.000905   0.002350  -0.000714
    18  H   -0.000000   0.000003   0.003404   0.002223  -0.000675   0.000173
    19  H    0.000000  -0.000000  -0.000000   0.000012  -0.000196  -0.000446
    20  H    0.000000  -0.000000   0.000000  -0.000000   0.000000   0.000001
    21  H    0.000000  -0.000000   0.000000  -0.000000   0.000000   0.000000
    22  H    0.000000  -0.000000  -0.000000  -0.000000   0.000000   0.000000
    23  H   -0.000115   0.000011  -0.000119  -0.000004  -0.000217  -0.000003
    24  H   -0.003527  -0.000113   0.000011   0.000000  -0.000018   0.000000
    25  H    0.487759  -0.003580  -0.000112   0.000000   0.000000  -0.000000
    26  H   -0.003580   0.486762  -0.003625   0.000000  -0.000001   0.000000
    27  H   -0.000112  -0.003625   0.496358  -0.000074  -0.000001   0.000001
    28  H    0.000000   0.000000  -0.000074   0.507505  -0.031043  -0.018195
    29  H    0.000000  -0.000001  -0.000001  -0.031043   0.537543  -0.033867
    30  H   -0.000000   0.000000   0.000001  -0.018195  -0.033867   0.512679
    31  H   -0.000000   0.000000   0.000001   0.000000   0.000000  -0.000000
    32  H    0.000000  -0.000001  -0.000001   0.000000  -0.000002   0.000000
    33  H    0.000000   0.000000  -0.000075  -0.000000   0.000000   0.000000
              31         32         33
     1  C    0.026147  -0.005654  -0.030113
     2  N   -0.040235  -0.079480  -0.045327
     3  C   -0.080614   0.011636   0.011552
     4  C   -0.004006  -0.076621   0.070685
     5  N   -0.004471   0.005570  -0.002286
     6  C   -0.007219   0.008644   0.003781
     7  C    0.001738  -0.000617  -0.000196
     8  C    0.001739   0.015083  -0.005998
     9  C    0.040862   0.089154  -0.070807
    10  C   -0.002332  -0.027079   0.026996
    11  C   -0.006724   0.019742  -0.008424
    12  C   -0.003523   0.062307  -0.011663
    13  C    0.000087  -0.000683   0.001854
    14  C    0.000600  -0.003500   0.002727
    15  C    0.010432  -0.060896   0.013607
    16  C   -0.000718   0.002355  -0.000900
    17  C    0.428922   0.395879   0.405440
    18  H    0.000176  -0.000672   0.002218
    19  H    0.000000   0.000000  -0.000000
    20  H    0.000000   0.000000  -0.000000
    21  H    0.000001   0.000000  -0.000000
    22  H   -0.000459  -0.000197   0.000012
    23  H   -0.000002  -0.000212  -0.000004
    24  H    0.000000  -0.000017   0.000000
    25  H   -0.000000   0.000000   0.000000
    26  H    0.000000  -0.000001   0.000000
    27  H    0.000001  -0.000001  -0.000075
    28  H    0.000000   0.000000  -0.000000
    29  H    0.000000  -0.000002   0.000000
    30  H   -0.000000   0.000000   0.000000
    31  H    0.512745  -0.033906  -0.018204
    32  H   -0.033906   0.537449  -0.030986
    33  H   -0.018204  -0.030986   0.507404
          Atomic-Atomic Spin Densities.
               1          2          3          4          5          6
     1  C   -0.000000   0.000000  -0.000000   0.000000   0.000000   0.000000
     2  N    0.000000  -0.000000   0.000000  -0.000000   0.000000   0.000000
     3  C   -0.000000   0.000000  -0.000000   0.000000  -0.000000  -0.000000
     4  C    0.000000  -0.000000   0.000000  -0.000000   0.000000   0.000000
     5  N    0.000000   0.000000  -0.000000   0.000000  -0.000000  -0.000000
     6  C    0.000000   0.000000  -0.000000   0.000000  -0.000000  -0.000000
     7  C    0.000000  -0.000000   0.000000  -0.000000   0.000000   0.000000
     8  C   -0.000000   0.000000  -0.000000   0.000000  -0.000000  -0.000000
     9  C    0.000000  -0.000000   0.000000  -0.000000   0.000000   0.000000
    10  C    0.000000  -0.000000  -0.000000   0.000000  -0.000000  -0.000000
    11  C   -0.000000  -0.000000   0.000000  -0.000000   0.000000  -0.000000
    12  C   -0.000000  -0.000000   0.000000  -0.000000   0.000000   0.000000
    13  C    0.000000  -0.000000  -0.000000   0.000000  -0.000000  -0.000000
    14  C   -0.000000   0.000000   0.000000  -0.000000   0.000000   0.000000
    15  C    0.000000   0.000000  -0.000000   0.000000  -0.000000   0.000000
    16  C   -0.000000   0.000000  -0.000000   0.000000   0.000000  -0.000000
    17  C   -0.000000  -0.000000   0.000000  -0.000000  -0.000000   0.000000
    18  H    0.000000  -0.000000  -0.000000   0.000000  -0.000000   0.000000
    19  H   -0.000000  -0.000000   0.000000  -0.000000   0.000000   0.000000
    20  H   -0.000000  -0.000000   0.000000  -0.000000  -0.000000   0.000000
    21  H   -0.000000   0.000000  -0.000000   0.000000  -0.000000  -0.000000
    22  H   -0.000000   0.000000  -0.000000  -0.000000  -0.000000  -0.000000
    23  H   -0.000000   0.000000  -0.000000   0.000000  -0.000000   0.000000
    24  H    0.000000   0.000000  -0.000000   0.000000  -0.000000   0.000000
    25  H   -0.000000  -0.000000   0.000000  -0.000000   0.000000  -0.000000
    26  H   -0.000000   0.000000  -0.000000   0.000000   0.000000   0.000000
    27  H   -0.000000  -0.000000   0.000000  -0.000000   0.000000   0.000000
    28  H    0.000000   0.000000  -0.000000   0.000000   0.000000  -0.000000
    29  H   -0.000000  -0.000000   0.000000  -0.000000  -0.000000   0.000000
    30  H    0.000000   0.000000  -0.000000   0.000000   0.000000  -0.000000
    31  H    0.000000  -0.000000   0.000000  -0.000000   0.000000   0.000000
    32  H   -0.000000   0.000000  -0.000000   0.000000   0.000000  -0.000000
    33  H    0.000000  -0.000000   0.000000  -0.000000  -0.000000  -0.000000
               7          8          9         10         11         12
     1  C    0.000000  -0.000000   0.000000   0.000000  -0.000000  -0.000000
     2  N   -0.000000   0.000000  -0.000000  -0.000000  -0.000000  -0.000000
     3  C    0.000000  -0.000000   0.000000  -0.000000   0.000000   0.000000
     4  C   -0.000000   0.000000  -0.000000   0.000000  -0.000000  -0.000000
     5  N    0.000000  -0.000000   0.000000  -0.000000   0.000000   0.000000
     6  C    0.000000  -0.000000   0.000000  -0.000000  -0.000000   0.000000
     7  C   -0.000000   0.000000  -0.000000   0.000000  -0.000000  -0.000000
     8  C    0.000000  -0.000000   0.000000  -0.000000   0.000000   0.000000
     9  C   -0.000000   0.000000  -0.000000   0.000000  -0.000000  -0.000000
    10  C    0.000000  -0.000000   0.000000  -0.000000   0.000000   0.000000
    11  C   -0.000000   0.000000  -0.000000   0.000000  -0.000000   0.000000
    12  C   -0.000000   0.000000  -0.000000   0.000000   0.000000  -0.000000
    13  C   -0.000000   0.000000  -0.000000   0.000000  -0.000000   0.000000
    14  C   -0.000000   0.000000   0.000000  -0.000000  -0.000000  -0.000000
    15  C    0.000000  -0.000000   0.000000   0.000000   0.000000   0.000000
    16  C    0.000000  -0.000000   0.000000   0.000000   0.000000   0.000000
    17  C   -0.000000   0.000000  -0.000000   0.000000  -0.000000  -0.000000
    18  H    0.000000  -0.000000  -0.000000  -0.000000   0.000000   0.000000
    19  H   -0.000000  -0.000000   0.000000   0.000000   0.000000   0.000000
    20  H   -0.000000   0.000000  -0.000000   0.000000  -0.000000  -0.000000
    21  H    0.000000  -0.000000   0.000000   0.000000  -0.000000  -0.000000
    22  H    0.000000   0.000000   0.000000  -0.000000   0.000000  -0.000000
    23  H    0.000000  -0.000000   0.000000  -0.000000   0.000000   0.000000
    24  H    0.000000  -0.000000   0.000000  -0.000000  -0.000000   0.000000
    25  H   -0.000000   0.000000   0.000000  -0.000000   0.000000  -0.000000
    26  H    0.000000  -0.000000  -0.000000   0.000000   0.000000  -0.000000
    27  H   -0.000000   0.000000  -0.000000  -0.000000  -0.000000  -0.000000
    28  H    0.000000  -0.000000   0.000000   0.000000   0.000000   0.000000
    29  H   -0.000000   0.000000  -0.000000   0.000000  -0.000000  -0.000000
    30  H    0.000000  -0.000000   0.000000  -0.000000   0.000000   0.000000
    31  H   -0.000000   0.000000  -0.000000  -0.000000  -0.000000   0.000000
    32  H    0.000000  -0.000000   0.000000   0.000000   0.000000  -0.000000
    33  H   -0.000000   0.000000   0.000000  -0.000000  -0.000000   0.000000
              13         14         15         16         17         18
     1  C    0.000000  -0.000000   0.000000  -0.000000  -0.000000   0.000000
     2  N   -0.000000   0.000000   0.000000   0.000000  -0.000000  -0.000000
     3  C   -0.000000   0.000000  -0.000000  -0.000000   0.000000  -0.000000
     4  C    0.000000  -0.000000   0.000000   0.000000  -0.000000   0.000000
     5  N   -0.000000   0.000000  -0.000000   0.000000  -0.000000  -0.000000
     6  C   -0.000000   0.000000   0.000000  -0.000000   0.000000   0.000000
     7  C   -0.000000  -0.000000   0.000000   0.000000  -0.000000   0.000000
     8  C    0.000000   0.000000  -0.000000  -0.000000   0.000000  -0.000000
     9  C   -0.000000   0.000000   0.000000   0.000000  -0.000000  -0.000000
    10  C    0.000000  -0.000000   0.000000   0.000000   0.000000  -0.000000
    11  C   -0.000000  -0.000000   0.000000   0.000000  -0.000000   0.000000
    12  C    0.000000  -0.000000   0.000000   0.000000  -0.000000   0.000000
    13  C   -0.000000   0.000000  -0.000000  -0.000000   0.000000  -0.000000
    14  C    0.000000  -0.000000   0.000000  -0.000000  -0.000000   0.000000
    15  C   -0.000000   0.000000  -0.000000  -0.000000   0.000000  -0.000000
    16  C   -0.000000  -0.000000  -0.000000   0.000000  -0.000000   0.000000
    17  C    0.000000  -0.000000   0.000000  -0.000000   0.000000   0.000000
    18  H   -0.000000   0.000000  -0.000000   0.000000   0.000000  -0.000000
    19  H    0.000000  -0.000000  -0.000000   0.000000  -0.000000   0.000000
    20  H   -0.000000  -0.000000   0.000000  -0.000000   0.000000   0.000000
    21  H    0.000000  -0.000000   0.000000   0.000000  -0.000000   0.000000
    22  H    0.000000  -0.000000  -0.000000   0.000000   0.000000   0.000000
    23  H    0.000000   0.000000  -0.000000   0.000000   0.000000  -0.000000
    24  H    0.000000   0.000000  -0.000000   0.000000   0.000000  -0.000000
    25  H    0.000000  -0.000000   0.000000  -0.000000  -0.000000   0.000000
    26  H   -0.000000   0.000000  -0.000000  -0.000000   0.000000  -0.000000
    27  H    0.000000  -0.000000   0.000000  -0.000000  -0.000000   0.000000
    28  H   -0.000000  -0.000000  -0.000000   0.000000   0.000000  -0.000000
    29  H    0.000000  -0.000000   0.000000  -0.000000   0.000000   0.000000
    30  H   -0.000000   0.000000  -0.000000   0.000000  -0.000000  -0.000000
[...]
 000592,0.00003688,0.00001303,0.19618331,0.00068681,0.00035507,0.001496
 95,-0.00010868,0.00035339,-0.00020329,0.00199616,-0.00049436,0.0010567
 2,-0.00156644,-0.00539471,-0.00159321,0.03067785,-0.00958599,0.0244412
 3,-0.00027599,-0.00015659,-0.00009143,0.00020353,0.00004241,0.00005768
 ,0.00018097,0.00015043,0.00010761,-0.00043203,-0.00053546,-0.00036032,
 -0.00017842,-0.00052505,0.00008520,0.00004158,0.00004888,0.00000243,-0
 .00002322,0.00000836,-0.00001865,0.00000720,0.00000036,0.00001132,-0.0
 0000335,0.00001048,-0.00002612,-0.00004767,-0.00000473,0.00004265,0.01
 823573,-0.05292006,0.01773943,-0.00008477,0.00011720,-0.00004582,-0.00
 024231,0.00033300,-0.00040618,-0.00003315,0.00032012,0.00012292,0.0000
 5426,-0.00001675,0.00004324,0.00001525,0.00000412,0.00003230,0.0000976
 4,-0.00010358,0.00011163,0.00000979,-0.00000211,-0.00003246,0.00000293
 ,-0.00000069,-0.00000161,-0.00000075,0.00000034,-0.00000209,-0.0000013
 2,-0.00000250,0.00000104,0.00000508,0.00000493,-0.00001206,-0.03240972
 ,0.06276735,-0.00011461,-0.00016065,0.00121461,0.00005101,0.00012223,0
 .00007724,0.00009497,-0.00004906,0.00022419,0.00099082,-0.00108762,0.0
 0093059,0.00442438,0.00041188,0.00459682,0.00013424,-0.00019839,-0.000
 02508,-0.00002869,0.00005184,0.00000404,-0.00005779,-0.00004760,-0.000
 02786,0.00008514,-0.00002859,0.00001313,-0.00002788,-0.00004412,-0.000
 17599,0.00002932,-0.00008182,-0.00015350,-0.00005578,0.00002055,0.0000
 0397,-0.00000199,0.00000429,0.00005768,0.00005678,-0.00001610,-0.00004
 363,0.00002474,-0.00008141,0.00007008,-0.13794050,0.02418114,-0.186667
 51,-0.00001031,-0.00003300,-0.00000741,0.00005597,0.00064803,-0.000310
 32,0.00000663,0.00006402,-0.00003636,-0.00000829,0.00000069,-0.0000003
 6,-0.00000375,0.00000308,-0.00000145,0.00002641,-0.00000604,-0.0000161
 5,0.00001498,-0.00001694,0.00003466,0.00000022,-0.00000329,0.00000641,
 0.00000024,0.00000209,0.00000327,-0.00000232,0.00000445,0.00000011,0.0
 0000702,0.00003552,0.00001348,0.14738816,-0.02503558,0.19351273,-0.000
 76943,-0.00095074,-0.00037962,0.00004761,-0.00006536,0.00003774,-0.000
 19641,0.00134779,-0.00054560,0.00310447,-0.00146972,0.00373215,-0.0081
 2023,0.01217216,0.00892517,0.00012207,-0.00072754,-0.00014156,-0.00024
 109,0.00054721,-0.00027293,-0.00053906,-0.00056886,-0.00035919,0.00082
 538,-0.00002355,0.00047625,0.00009435,-0.00015979,0.00003417,0.0000247
 9,-0.00026738,0.00005672,0.00000402,-0.00003243,-0.00002544,0.00003288
 ,0.00002216,-0.00004173,-0.00000965,0.00000372,0.00005976,0.00019488,0
 .00009658,-0.00011499,-0.08836555,0.00991979,0.08798690,-0.00010807,-0
 .00008764,0.00002534,0.00020259,0.00038102,0.00004424,-0.00003473,-0.0
 0011981,0.00010984,-0.00003815,0.00000288,-0.00001759,-0.00002916,-0.0
 0000434,-0.00000836,-0.00000985,0.00002750,0.00001928,-0.00005154,0.00
 004559,-0.00001789,0.00000895,0.00002435,-0.00001989,0.00000426,0.0000
 0152,-0.00000445,0.00002156,-0.00002357,-0.00000452,-0.00000269,0.0000
 2171,0.00001160,0.01023194,-0.00330909,-0.02050820,0.09147575,0.003754
 75,0.00236826,-0.00156330,-0.00045616,-0.00017879,0.00020235,0.0002228
 0,-0.00177441,0.00090018,-0.00521266,0.00308205,-0.00472068,0.02111617
 ,-0.01989394,-0.02864362,0.00052796,0.00074597,0.00071543,0.00003183,-
 0.00049819,0.00017669,0.00080654,0.00043689,0.00059857,-0.00098859,0.0
 0012836,-0.00061120,-0.00075175,-0.00052283,0.00032477,-0.00016982,-0.
 00035099,0.00009676,-0.00015399,0.00001585,0.00010382,0.00007558,0.000
 01350,0.00008723,0.00001490,-0.00003034,-0.00010846,-0.00007525,0.0001
 1829,0.00024649,0.01005386,-0.05151773,-0.02495283,0.00011254,0.000168
 88,0.00011360,-0.00044705,-0.00014574,-0.00004015,0.00020128,-0.000064
 21,-0.00017778,0.00007116,0.00000244,0.00004302,0.00005015,-0.00001331
 ,0.00000511,0.00002554,-0.00005241,-0.00004892,0.00000974,-0.00001607,
 -0.00003654,-0.00001456,0.00001506,0.00000481,0.00000448,0.00000169,0.
 00000244,-0.00001665,-0.00002367,0.00001198,0.00002727,0.00000904,-0.0
 0001893,-0.00225736,0.00088480,0.00286106,-0.01957385,0.06334737,0.001
 52965,0.00103741,0.00034020,-0.00045814,0.00001929,-0.00021575,0.00092
 450,-0.00062309,0.00047538,-0.00267311,0.00088835,0.00007116,0.0037077
 1,-0.00998446,0.00393996,0.00137209,-0.00043077,0.00008222,-0.00011994
 ,0.00010390,-0.00045085,0.00052846,-0.00025854,0.00038830,-0.00023160,
 0.00018765,-0.00026785,-0.00025883,0.00035348,-0.00016202,-0.00003573,
 0.00039217,0.00000224,-0.00004375,0.00001872,0.00001990,0.00003704,-0.
 00003180,0.00005492,0.00002511,-0.00002036,-0.00012738,-0.00036225,-0.
 00010377,0.00006465,0.08704086,-0.02535137,-0.25870453,0.00014074,0.00
 019367,-0.00007164,-0.00027756,0.00005410,-0.00024829,-0.00016985,-0.0
 0002101,0.00029636,0.00005924,0.00001132,0.00004736,-0.00000365,-0.000
 02046,0.00005978,-0.00000147,-0.00005792,0.00002484,0.00010568,0.00001
 011,0.00004377,-0.00000090,-0.00004287,0.00001270,0.00000124,0.0000014
 1,0.00000208,-0.00001062,0.00004778,0.00000538,0.00001520,-0.00001066,
 -0.00000072,0.00963109,-0.00167160,-0.01808576,-0.10089644,0.03541309,
 0.27580929,-0.00066265,0.00210131,-0.00054927,0.00019198,0.00060818,-0
 .00007067,0.00023183,0.00019537,0.00044390,0.00057606,-0.00046171,-0.0
 0066021,0.01395616,0.01299616,-0.00179180,-0.00060465,0.00001408,-0.00
 048466,-0.00041537,0.00032040,0.00040424,-0.00003079,-0.00018127,-0.00
 001233,0.00000625,-0.00000740,0.00013297,-0.00016219,-0.00002058,0.000
 18417,-0.00001897,-0.00011705,-0.00012407,0.00002526,-0.00002304,-0.00
 002482,-0.00003464,0.00001598,-0.00000548,0.00000458,-0.00002288,0.000
 03788,0.00018526,-0.00007689,0.00003412,-0.20122325,-0.13560869,0.0321
 0974,-0.00015718,0.00009048,0.00002943,0.00003774,-0.00005669,0.000158
 39,-0.00008326,0.00048505,-0.00081363,0.00001953,-0.00000381,0.0000003
 3,0.00005994,0.00000782,-0.00008213,0.00002753,-0.00001311,-0.00000416
 ,-0.00002325,0.00003056,-0.00000508,-0.00000183,0.00000130,0.00000626,
 -0.00000482,0.00000380,0.00000287,-0.00000441,0.00000414,-0.00000067,0
 .00000323,0.00002040,0.00000111,-0.01370105,-0.01347940,0.00536329,-0.
 00790375,-0.00694908,0.00047287,0.20969090,0.00419585,-0.00164096,0.00
 291209,-0.00080844,-0.00168437,0.00008109,-0.00019209,-0.00083747,-0.0
 0039824,-0.00215745,0.00121946,-0.00105285,-0.02190167,-0.03101532,-0.
 00015157,0.00051909,-0.00008240,0.00039310,0.00011457,-0.00002687,0.00
 010727,0.00024182,0.00015009,0.00017663,-0.00016702,0.00006670,-0.0002
 0773,0.00037071,-0.00013166,-0.00049428,-0.00006816,0.00011326,0.00003
 749,-0.00001110,0.00001738,0.00004236,-0.00003171,-0.00001363,0.000034
 10,-0.00005394,0.00003037,-0.00003867,-0.00014620,0.00012281,0.0001783
 9,-0.12767644,-0.16193221,0.02787545,0.00067851,-0.00002024,-0.0000109
 9,-0.00005205,0.00012832,-0.00017303,0.00047298,0.00009829,0.00033427,
 0.00002382,0.00000002,0.00001467,0.00002745,0.00001430,0.00000492,-0.0
 0001877,-0.00002397,0.00002255,0.00001780,-0.00001200,-0.00003500,-0.0
 0001558,-0.00000174,0.00002258,-0.00000918,-0.00000340,0.00000596,-0.0
 0003102,-0.00000444,0.00001149,0.00001119,-0.00002015,-0.00001737,0.00
 402325,0.00437229,-0.00153879,0.00270022,0.00390103,-0.00000251,0.1400
 7339,0.18747275,0.00066756,-0.00079709,0.00017479,-0.00025954,-0.00039
 381,-0.00004303,0.00001742,-0.00002614,-0.00002291,0.00006756,0.000514
 82,-0.00003376,-0.00469423,-0.00396625,0.00094668,-0.00014233,0.000531
 48,-0.00051094,-0.00009196,-0.00004047,0.00014122,0.00003814,-0.000018
 48,0.00003703,-0.00000511,-0.00002210,0.00004091,-0.00002627,0.0001916
 0,-0.00007427,0.00001365,0.00009771,0.00002088,-0.00007719,0.00003648,
 0.00004157,0.00003460,-0.00001804,0.00004375,0.00002882,-0.00000863,-0
 .00005808,-0.00015787,-0.00004504,0.00002561,0.03326551,0.02911442,-0.
 05556854,0.00012685,0.00000705,0.00002802,0.00008515,0.00000353,0.0000
 7541,-0.00043255,0.00005608,-0.00048968,0.00002091,-0.00000453,0.00001
 653,0.00002674,-0.00001267,-0.00002176,0.00000406,-0.00001216,0.000003
 32,0.00003390,-0.00001476,0.00001594,0.00000019,-0.00001026,-0.0000006
 6,0.00000323,-0.00000106,0.00000114,-0.00000113,0.00002013,0.00000240,
 0.00001428,-0.00000753,0.00001151,-0.01566448,-0.01587854,0.00479272,0
 .02187845,0.01898930,-0.00349889,-0.03474191,-0.02822084,0.05387561,-0
 .00066653,-0.00209510,-0.00057833,0.01396098,-0.01299288,-0.00196176,0
 .00057711,0.00047139,-0.00065355,0.00023206,-0.00020169,0.00044126,0.0
 0019246,-0.00060847,-0.00007888,0.00000607,0.00000567,0.00013287,-0.00
 003073,0.00018116,-0.00000988,-0.00041531,-0.00032537,0.00039976,-0.00
 060525,-0.00000805,-0.00048619,-0.00016252,0.00001886,0.00018445,-0.00
 001857,0.00011832,-0.00012347,0.00002445,0.00002317,-0.00002432,-0.000
 03416,-0.00001597,-0.00000505,0.00000509,0.00002250,0.00003738,0.00018
 455,0.00007742,0.00003539,-0.00015768,-0.00009085,0.00002814,-0.201123
 80,0.13520146,0.03386836,0.00003780,0.00005434,0.00015907,0.00002754,0
 .00001314,-0.00000399,0.00005990,-0.00000672,-0.00008220,0.00001952,0.
 00000380,0.00000037,-0.00008463,-0.00047383,-0.00082164,-0.00002288,-0
 .00003040,-0.00000537,-0.00000183,-0.00000136,0.00000623,-0.00000480,-
 0.00000384,0.00000284,-0.00000441,-0.00000418,-0.00000072,0.00000331,-
 0.00002054,0.00000095,-0.00000145,0.00000735,0.00000226,0.00000117,0.0
 0000242,-0.00000251,0.00001614,-0.00006296,-0.00001121,0.20958747,-0.0
 0420594,-0.00161040,-0.00293223,0.02194842,-0.03106357,-0.00027450,0.0
 0215492,0.00121039,0.00106859,0.00019212,-0.00084235,0.00038713,0.0008
 1133,-0.00168912,-0.00010346,0.00016665,0.00006342,0.00020767,-0.00024
 184,0.00015224,-0.00017472,-0.00011324,-0.00002554,-0.00010992,-0.0005
 1567,-0.00006967,-0.00038590,-0.00037107,-0.00013508,0.00049370,0.0000
 6839,0.00011477,-0.00003685,0.00001159,0.00001840,-0.00004257,0.000031
 60,-0.00001346,-0.00003448,0.00005372,0.00002992,0.00003920,0.00014726
 ,0.00012486,-0.00017670,-0.00068010,-0.00001985,0.00001010,0.12725027,
 -0.16128299,-0.02926476,0.00005092,0.00012582,0.00017365,0.00001867,-0
 .00002380,-0.00002290,-0.00002782,0.00001423,-0.00000437,-0.00002408,0
 .00000016,-0.00001485,-0.00046730,0.00010493,-0.00032579,-0.00001803,-
 0.00001274,0.00003449,0.00001557,-0.00000156,-0.00002259,0.00000915,-0
 .00000334,-0.00000601,0.00003101,-0.00000394,-0.00001156,-0.00001134,-
 0.00002050,0.00001698,0.00002648,0.00001781,0.00000734,0.00004062,-0.0
 0004905,-0.00005564,0.00006296,-0.00022471,-0.00004308,-0.13962214,0.1
 8682788,0.00061109,0.00077166,0.00014694,-0.00439344,0.00353507,0.0009
 9193,0.00009648,-0.00049807,-0.00002604,0.00002039,0.00001521,-0.00001
 735,-0.00024857,0.00037166,-0.00003895,-0.00000310,0.00002246,0.000043
 85,0.00003513,0.00001985,0.00003502,-0.00009358,0.00003859,0.00014041,
 -0.00014961,-0.00052564,-0.00052312,-0.00003079,-0.00019224,-0.0000704
 5,0.00001448,-0.00009626,0.00002024,-0.00007652,-0.00003663,0.00004044
 ,0.00003486,0.00001732,0.00004314,0.00002924,0.00000979,-0.00005723,-0
 .00015618,0.00004584,0.00002360,0.00011756,-0.00000791,0.00002820,0.03
 491409,-0.03050205,-0.05633557,0.00008586,-0.00000313,0.00007771,0.000
 00433,0.00001181,0.00000317,0.00002639,0.00001318,-0.00002164,0.000020
 62,0.00000430,0.00001642,-0.00044073,-0.00004759,-0.00049747,0.0000333
 9,0.00001436,0.00001632,0.00000039,0.00001024,-0.00000083,0.00000332,0
 .00000100,0.00000108,-0.00000069,-0.00002016,0.00000198,0.00001418,0.0
 0000716,0.00001189,-0.00000835,0.00000127,-0.00000465,-0.00001197,0.00
 001926,0.00002290,-0.00001033,0.00003988,0.00000887,-0.03655214,0.0299
 7402,0.05464129,-0.00076984,0.00095753,-0.00036775,-0.00814041,-0.0122
 9768,0.00877409,0.00310697,0.00141934,0.00375454,-0.00019762,-0.001341
 06,-0.00056443,0.00004791,0.00006486,0.00003848,0.00082584,0.00001676,
 0.00047699,-0.00053939,0.00057417,-0.00035173,-0.00024149,-0.00054366,
 -0.00028028,0.00012247,0.00072947,-0.00013223,0.00009326,0.00016076,0.
 00003633,0.00002418,0.00026450,0.00005951,0.00000407,0.00003289,-0.000
 02509,0.00003292,-0.00002166,-0.00004202,-0.00000948,-0.00000467,0.000
 05981,0.00019543,-0.00009450,-0.00011612,-0.00010813,0.00008756,0.0000
 2644,-0.08843299,-0.01108368,0.08791019,0.00020261,-0.00038137,0.00003
 902,-0.00000986,-0.00002780,0.00001889,-0.00002916,0.00000445,-0.00000
 837,-0.00003822,-0.00000262,-0.00001767,-0.00003454,0.00011821,0.00011
 138,-0.00005107,-0.00004581,-0.00001836,0.00000897,-0.00002404,-0.0000
 2021,0.00000429,-0.00000148,-0.00000448,0.00002154,0.00002352,-0.00000
 420,-0.00000260,-0.00002191,0.00001132,0.00000852,-0.00000935,-0.00000
 029,0.00001420,-0.00001919,-0.00002735,0.00000115,-0.00004050,-0.00001
 252,-0.00790822,-0.00298839,0.02182938,0.09156173,-0.00377225,0.002363
 19,0.00158984,-0.02118133,-0.02039028,0.02830639,0.00524768,0.00302644
 ,0.00476123,-0.00023574,-0.00176932,-0.00093034,0.00046103,-0.00017523
 ,-0.00020187,0.00099114,0.00012201,0.00061609,-0.00081315,0.00044155,-
 0.00059734,-0.00003030,-0.00049399,-0.00017729,-0.00054573,0.00074951,
 -0.00070647,0.00075737,-0.00051766,-0.00032995,0.00016796,-0.00034017,
 -0.00009973,0.00015429,0.00001721,-0.00010349,-0.00007598,0.00001423,-
 0.00008752,-0.00001489,-0.00003191,0.00010967,0.00007968,0.00011959,-0
 .00024607,-0.00011402,0.00017309,-0.00011039,-0.01120459,-0.05222487,0
 .02766947,0.00045054,-0.00014546,0.00004138,-0.00002554,-0.00005381,0.
 00004781,-0.00005008,-0.00001348,-0.00000611,-0.00007194,0.00000322,-0
 .00004361,-0.00019887,-0.00006671,0.00017279,-0.00001023,-0.00001575,0
 .00003617,0.00001456,0.00001448,-0.00000484,-0.00000445,0.00000177,-0.
 00000244,0.00001684,-0.00002279,-0.00001234,-0.00002746,0.00000872,0.0
 0001908,0.00002326,-0.00001417,0.00001358,0.00001949,-0.00009417,-0.00
 002241,-0.00000244,-0.00004941,-0.00002017,0.00695330,0.00415257,-0.01
 889595,0.02091730,0.06431673,0.00147696,-0.00100945,0.00034826,0.00342
 531,0.00965291,0.00445643,-0.00260114,-0.00084687,0.00012489,0.0009226
 3,0.00059253,0.00047147,-0.00045199,-0.00001876,-0.00021890,-0.0002189
 0,-0.00018226,-0.00026261,0.00051802,0.00025826,0.00038393,-0.00012023
 ,-0.00010357,-0.00045417,0.00136419,0.00043870,0.00007813,-0.00024764,
 -0.00035905,-0.00017290,-0.00003294,-0.00039502,-0.00000193,-0.0000407
 8,-0.00001850,0.00001815,0.00003569,0.00003147,0.00005332,0.00002414,0
 .00002146,-0.00012503,-0.00036139,0.00010303,0.00006208,0.00013899,-0.
 00019052,-0.00007568,0.08696297,0.02806900,-0.25794112,-0.00027142,-0.
 00005260,-0.00024839,-0.00000181,0.00005686,0.00002628,-0.00000430,0.0
 0001947,0.00005998,0.00005829,-0.00001194,0.00004660,-0.00017251,0.000
 01629,0.00029885,0.00010513,-0.00000996,0.00004366,-0.00000070,0.00004
 285,0.00001312,0.00000116,-0.00000141,0.00000202,-0.00001031,-0.000048
 01,0.00000459,0.00001482,0.00001087,-0.00000031,-0.00001744,0.00002306
 ,-0.00000350,-0.00002705,0.00002018,0.00007426,-0.00000249,0.00005463,
 0.00002337,0.00056388,0.00010389,-0.00374412,-0.10069897,-0.03818941,0
 .27476171,0.00013296,0.00101738,0.00059614,-0.01171534,-0.00310733,-0.
 00852154,0.00196551,-0.00181259,0.00092222,-0.00068079,-0.00016806,-0.
 00068143,0.00005409,-0.00000520,0.00019801,0.00021903,-0.00024966,0.00
 015732,-0.00018711,0.00000054,-0.00014267,0.00001071,-0.00003147,-0.00
 001159,0.00005775,-0.00004110,0.00005735,0.00016055,0.00011527,0.00008
 503,0.00010073,-0.00005613,-0.00004160,-0.00013687,-0.00000565,0.00002
 551,0.00010220,-0.00000423,0.00008211,0.00007374,0.00002519,-0.0001170
 8,-0.00010162,0.00004624,-0.00002239,-0.00004678,0.00009788,0.00004455
 ,-0.18281889,-0.02368639,-0.13435052,0.00015999,-0.00065972,-0.0000738
 9,-0.00006037,-0.00005794,-0.00003366,-0.00002846,-0.00001467,-0.00000
 963,-0.00004391,-0.00000604,-0.00003601,0.00007829,-0.00000195,0.00010
 809,-0.00000702,0.00003035,0.00001905,0.00000473,-0.00001235,-0.000009
 39,0.00000387,-0.00000073,-0.00000036,0.00001072,0.00000848,-0.0000056
 0,0.00000606,-0.00003706,0.00001274,0.00001888,-0.00001647,0.00000383,
 0.00000849,-0.00002301,-0.00001777,-0.00000147,-0.00002639,-0.00000870
 ,-0.01369284,-0.00380472,-0.01571517,0.01023696,0.00212456,0.00966983,
 0.19611618,-0.00068432,0.00037392,-0.00150690,-0.03072662,-0.00923394,
 -0.02462950,0.00154914,-0.00542984,0.00150620,-0.00199718,-0.00047954,
 -0.00106589,0.00010804,0.00035199,0.00020691,0.00043043,-0.00054074,0.
 00035263,-0.00018002,0.00015129,-0.00010501,-0.00020314,0.00004401,-0.
 00005715,0.00027421,-0.00016065,0.00008935,0.00017947,-0.00052408,-0.0
 0008963,-0.00004176,0.00004760,0.00000037,0.00002399,0.00000850,0.0000
 1869,-0.00000721,0.00000052,-0.00001214,0.00000255,0.00001000,0.000026
 86,0.00004753,-0.00000624,-0.00004406,0.00008489,0.00011603,0.00004754
 ,-0.01632108,-0.05236155,-0.01588318,0.00024169,0.00033648,0.00041500,
 -0.00009804,-0.00010206,-0.00011276,-0.00001518,0.00000461,-0.00003223
 ,-0.00005412,-0.00001612,-0.00004345,0.00003314,0.00032257,-0.00011821
 ,-0.00000973,-0.00000296,0.00003175,-0.00000295,-0.00000075,0.00000151
 ,0.00000074,0.00000034,0.00000205,0.00000133,-0.00000243,-0.00000106,-
 0.00000521,0.00000523,0.00001193,0.00001640,-0.00003455,-0.00000279,0.
 00000936,-0.00001365,-0.00002319,-0.00000736,0.00001787,-0.00000095,0.
 01341004,0.00413425,0.01588171,0.00357803,0.00089488,0.00192189,0.0303
 6296,0.06208899,-0.00012426,0.00014946,0.00119532,0.00400783,-0.000601
 45,0.00426264,0.00101254,0.00100169,0.00096665,0.00006801,0.00003948,0
 .00021027,0.00005252,-0.00011862,0.00007840,0.00009102,0.00002106,0.00
 001824,-0.00006023,0.00005008,-0.00002862,-0.00003151,-0.00005130,0.00
 000254,0.00013823,0.00019641,-0.00002116,-0.00002518,0.00003966,-0.000
 17681,0.00002963,0.00008369,-0.00015284,-0.00005631,-0.00002074,0.0000
 0422,-0.00000163,-0.00000507,0.00005812,0.00005728,0.00001716,-0.00004
 396,0.00002455,0.00008085,0.00007077,-0.00000918,0.00003467,-0.0000063
 5,-0.13817843,-0.02232287,-0.18729011,0.00005912,-0.00063892,-0.000313
 96,0.00002508,0.00000487,-0.00001759,-0.00000396,-0.00000299,-0.000001
 93,-0.00000902,-0.00000090,-0.00000095,0.00000706,-0.00005913,-0.00003
 880,0.00001480,0.00001653,0.00003512,0.00000017,0.00000323,0.00000648,
 0.00000025,-0.00000213,0.00000330,-0.00000230,-0.00000449,0.00000004,0
 .00000702,-0.00003577,0.00001332,0.00000406,0.00000227,0.00000378,-0.0
 0000019,-0.00001374,-0.00000400,0.00000216,-0.00000705,-0.00000475,0.0
 0553797,0.00152611,0.00502204,-0.02045430,-0.00259576,-0.01810244,0.14
 781720,0.02321371,0.19425303\\-0.00001526,-0.00000426,0.00000475,0.000
 00687,0.00000636,-0.00001101,-0.00001033,-0.00000203,0.00000664,-0.000
 00562,0.00000209,0.00001066,0.00001007,-0.00000193,-0.00002038,0.00000
 317,-0.00000905,-0.00000390,-0.00000197,-0.00000282,-0.00000137,-0.000
 00344,0.00000246,-0.00000165,0.00000492,0.00000804,-0.00000205,0.00002
 494,-0.00000035,0.00000133,-0.00002899,-0.00000057,0.00001428,0.000011
 61,0.00000041,-0.00000712,-0.00000290,0.00000034,-0.00001059,0.0000030
 9,0.00000026,0.00000542,-0.00000266,0.00000103,-0.00000033,-0.00000107
 ,-0.00001182,0.00001261,0.00000136,0.00001277,0.00000978,0.00000074,0.
 ,0.00000569,0.00000393,-0.00000465,0.00000459,-0.00000577,0.00000130,-
 0.00000211,-0.00000558,-0.00000108,-0.00000207,0.00000368,0.00000455,0
 .00000408,-0.00000254,-0.00000056,-0.00000129,-0.00000160,0.00000008,-
 0.00000606,0.00000461,0.00000005,-0.00000321,0.00000527,0.00000005,-0.
 00000065,-0.00000286,-0.00000041,0.00000391,0.00000831,0.00000524,-0.0
 0000296,-0.00000230,0.00000041,-0.00000440,-0.00000270,-0.00000390,0.0
 0000196,-0.00000286,0.00000339,0.00000172,-0.00000189,-0.00000037,-0.0
 0000421,0.00000778,-0.00000504,-0.00000206\\\@
 The archive entry for this job was punched.


 THE BEST WAY TO CONVINCE A FOOL THAT HE IS WRONG 
 IS TO LET HIM HAVE HIS OWN WAY.

                                         JOSH BILLINGS
 Job cpu time:       0 days  7 hours 54 minutes 35.3 seconds.
 Elapsed time:       0 days  0 hours 25 minutes 29.6 seconds.
 File lengths (MBytes):  RWF=   1139 Int=      0 D2E=      0 Chk=     29 Scr=      1
 Normal termination of Gaussian 16 at Mon Nov  7 21:40:51 2022.
