 Entering Gaussian System, Link 0=g16
 Input=BIH-conformers-1.gau
 Output=BIH-conformers-1.log
 Initial command:
 /apps/gaussian/g16c01/g16/l1.exe "/jobfs/62953830.gadi-pbs/Gau-1275392.inp" -scrdir="/jobfs/62953830.gadi-pbs/"
 Default is to use a total of  20 processors:
                               20 via shared-memory
                                1 via Linda
 Entering Link 1 = /apps/gaussian/g16c01/g16/l1.exe PID=   1275393.
  
 Copyright (c) 1988-2019, Gaussian, Inc.  All Rights Reserved.
  
 This is part of the Gaussian(R) 16 program.  It is based on
 the Gaussian(R) 09 system (copyright 2009, Gaussian, Inc.),
 the Gaussian(R) 03 system (copyright 2003, Gaussian, Inc.),
 the Gaussian(R) 98 system (copyright 1998, Gaussian, Inc.),
 the Gaussian(R) 94 system (copyright 1995, Gaussian, Inc.),
 the Gaussian 92(TM) system (copyright 1992, Gaussian, Inc.),
 the Gaussian 90(TM) system (copyright 1990, Gaussian, Inc.),
 the Gaussian 88(TM) system (copyright 1988, Gaussian, Inc.),
 the Gaussian 86(TM) system (copyright 1986, Carnegie Mellon
 University), and the Gaussian 82(TM) system (copyright 1983,
 Carnegie Mellon University). Gaussian is a federally registered
 trademark of Gaussian, Inc.
  
 This software contains proprietary and confidential information,
 including trade secrets, belonging to Gaussian, Inc.
  
 This software is provided under written license and may be
 used, copied, transmitted, or stored only in accord with that
 written license.
  
 The following legend is applicable only to US Government
 contracts under FAR:
  
                    RESTRICTED RIGHTS LEGEND
  
 Use, reproduction and disclosure by the US Government is
 subject to restrictions as set forth in subparagraphs (a)
 and (c) of the Commercial Computer Software - Restricted
 Rights clause in FAR 52.227-19.
  
 Gaussian, Inc.
 340 Quinnipiac St., Bldg. 40, Wallingford CT 06492
  
  
 ---------------------------------------------------------------
 Warning -- This program may not be used in any manner that
 competes with the business of Gaussian, Inc. or will provide
 assistance to any competitor of Gaussian, Inc.  The licensee
 of this program is prohibited from giving any competitor of
 Gaussian, Inc. access to this program.  By using this program,
 the user acknowledges that Gaussian, Inc. is engaged in the
 business of creating and licensing software in the field of
 computational chemistry and represents and warrants to the
 licensee that it is not a competitor of Gaussian, Inc. and that
 it will not use this program in any manner prohibited above.
 ---------------------------------------------------------------
  

 Cite this work as:
 Gaussian 16, Revision C.01,
 M. J. Frisch, G. W. Trucks, H. B. Schlegel, G. E. Scuseria, 
 M. A. Robb, J. R. Cheeseman, G. Scalmani, V. Barone, 
 G. A. Petersson, H. Nakatsuji, X. Li, M. Caricato, A. V. Marenich, 
 J. Bloino, B. G. Janesko, R. Gomperts, B. Mennucci, H. P. Hratchian, 
 J. V. Ortiz, A. F. Izmaylov, J. L. Sonnenberg, D. Williams-Young, 
 F. Ding, F. Lipparini, F. Egidi, J. Goings, B. Peng, A. Petrone, 
 T. Henderson, D. Ranasinghe, V. G. Zakrzewski, J. Gao, N. Rega, 
 G. Zheng, W. Liang, M. Hada, M. Ehara, K. Toyota, R. Fukuda, 
 J. Hasegawa, M. Ishida, T. Nakajima, Y. Honda, O. Kitao, H. Nakai, 
 T. Vreven, K. Throssell, J. A. Montgomery, Jr., J. E. Peralta, 
 F. Ogliaro, M. J. Bearpark, J. J. Heyd, E. N. Brothers, K. N. Kudin, 
 V. N. Staroverov, T. A. Keith, R. Kobayashi, J. Normand, 
 K. Raghavachari, A. P. Rendell, J. C. Burant, S. S. Iyengar, 
 J. Tomasi, M. Cossi, J. M. Millam, M. Klene, C. Adamo, R. Cammi, 
 J. W. Ochterski, R. L. Martin, K. Morokuma, O. Farkas, 
 J. B. Foresman, and D. J. Fox, Gaussian, Inc., Wallingford CT, 2019.
 
 ******************************************
 Gaussian 16:  ES64L-G16RevC.01  3-Jul-2019
                 7-Nov-2022 
 ******************************************
 %chk=BIH-conformers-1.chk
 Default route: Maxdisk=0MB
 ----------------------------------------------------------------------
 # opt(maxcycles=1000) freq=Noraman scf(maxcycle=500) uwb97xd/6-31+G(d,
 p) scrf=(smd,solvent=acetonitrile)
 ----------------------------------------------------------------------
 1/6=1000,18=20,19=15,26=3,38=1/1,3;
 2/9=110,12=2,17=6,18=5,40=1/2;
 3/5=1,6=6,7=111,11=2,25=1,30=1,70=32201,71=1,72=2,74=-58,116=2/1,2,3;
 4//1;
 5/5=2,7=500,38=5,53=2/2;
 6/7=2,8=2,9=2,10=2,28=1/1;
 7//1,2,3,16;
 1/6=1000,18=20,19=15,26=3/3(2);
 2/9=110/2;
 99//99;
 2/9=110/2;
 3/5=1,6=6,7=111,11=2,25=1,30=1,70=32205,71=1,72=2,74=-58,116=2/1,2,3;
 4/5=5,16=3,69=1/1;
 5/5=2,7=500,38=5,53=2/2;
 7//1,2,3,16;
 1/6=1000,18=20,19=15,26=3/3(-5);
 2/9=110/2;
 6/7=2,8=2,9=2,10=2,19=2,28=1/1;
 99/9=1/99;
 ----------
 OPT + Freq
 ----------
 Symbolic Z-matrix:
 Charge =  0 Multiplicity = 1
 C                     0.32715   0.00088   1.32535 
 N                    -0.585     1.1426    1.12698 
 C                    -1.61606   0.70714   0.28366 
 C                    -1.61625  -0.70609   0.28449 
 N                    -0.58536  -1.14083   1.12841 
 C                    -2.53293  -1.42137  -0.46537 
 C                    -3.48773  -0.69486  -1.21577 
 C                    -3.48756   0.69465  -1.21657 
 C                    -2.53257   1.42178  -0.46701 
 C                     1.53127   0.00002   0.38468 
 C                     1.37366  -0.00015  -1.0082 
 C                     2.49067  -0.00108  -1.84286 
 C                     3.77939  -0.00183  -1.29594 
 C                     3.94268  -0.00165   0.08952 
 C                     2.81896  -0.00073   0.92286 
 C                    -0.01227  -2.46565   0.95971 
 C                    -0.01156   2.46707   0.95669 
 H                     0.70191   0.00145   2.35635 
 H                    -2.52084  -2.50799  -0.48568 
 H                    -4.21979  -1.23788  -1.80906 
 H                    -4.21948   1.23716  -1.81049 
 H                    -2.5202    2.50837  -0.48859 
 H                     0.37793   0.00044  -1.44467 
 H                     2.35817  -0.00121  -2.92246 
 H                     4.6488   -0.00255  -1.94937 
 H                     4.94001  -0.00222   0.5234 
 H                     2.94582  -0.0006    2.00442 
 H                     0.43864  -2.60703  -0.03391 
 H                    -0.79327  -3.21797   1.10294 
 H                     0.75698  -2.62091   1.72149 
 H                     0.43934   2.60717  -0.03712 
 H                     0.75778   2.62302   1.71825 
 H                    -0.79235   3.21977   1.09907 
 

 GradGradGradGradGradGradGradGradGradGradGradGradGradGradGradGradGradGrad
 Berny optimization.
 Initialization pass.
                           ----------------------------
                           !    Initial Parameters    !
                           ! (Angstroms and Degrees)  !
 --------------------------                            --------------------------
 ! Name  Definition              Value          Derivative Info.                !
 --------------------------------------------------------------------------------
 ! R1    R(1,2)                  1.4748         estimate D2E/DX2                !
 ! R2    R(1,5)                  1.4748         estimate D2E/DX2                !
 ! R3    R(1,10)                 1.528          estimate D2E/DX2                !
 ! R4    R(1,18)                 1.097          estimate D2E/DX2                !
 ! R5    R(2,3)                  1.4014         estimate D2E/DX2                !
 ! R6    R(2,17)                 1.4533         estimate D2E/DX2                !
 ! R7    R(3,4)                  1.4132         estimate D2E/DX2                !
 ! R8    R(3,9)                  1.3836         estimate D2E/DX2                !
 ! R9    R(4,5)                  1.4014         estimate D2E/DX2                !
 ! R10   R(4,6)                  1.3836         estimate D2E/DX2                !
 ! R11   R(5,16)                 1.4533         estimate D2E/DX2                !
 ! R12   R(6,7)                  1.4151         estimate D2E/DX2                !
 ! R13   R(6,19)                 1.0869         estimate D2E/DX2                !
 ! R14   R(7,8)                  1.3895         estimate D2E/DX2                !
 ! R15   R(7,20)                 1.0876         estimate D2E/DX2                !
 ! R16   R(8,9)                  1.4151         estimate D2E/DX2                !
 ! R17   R(8,21)                 1.0876         estimate D2E/DX2                !
 ! R18   R(9,22)                 1.0869         estimate D2E/DX2                !
 ! R19   R(10,11)                1.4018         estimate D2E/DX2                !
 ! R20   R(10,15)                1.3956         estimate D2E/DX2                !
 ! R21   R(11,12)                1.3944         estimate D2E/DX2                !
 ! R22   R(11,23)                1.0872         estimate D2E/DX2                !
 ! R23   R(12,13)                1.4            estimate D2E/DX2                !
 ! R24   R(12,24)                1.0877         estimate D2E/DX2                !
 ! R25   R(13,14)                1.3951         estimate D2E/DX2                !
 ! R26   R(13,25)                1.0876         estimate D2E/DX2                !
 ! R27   R(14,15)                1.399          estimate D2E/DX2                !
 ! R28   R(14,26)                1.0876         estimate D2E/DX2                !
 ! R29   R(15,27)                1.089          estimate D2E/DX2                !
 ! R30   R(16,28)                1.1003         estimate D2E/DX2                !
 ! R31   R(16,29)                1.0938         estimate D2E/DX2                !
 ! R32   R(16,30)                1.0937         estimate D2E/DX2                !
 ! R33   R(17,31)                1.1003         estimate D2E/DX2                !
 ! R34   R(17,32)                1.0937         estimate D2E/DX2                !
 ! R35   R(17,33)                1.0938         estimate D2E/DX2                !
 ! A1    A(2,1,5)              101.459          estimate D2E/DX2                !
 ! A2    A(2,1,10)             113.8934         estimate D2E/DX2                !
 ! A3    A(2,1,18)             109.7129         estimate D2E/DX2                !
 ! A4    A(5,1,10)             113.8883         estimate D2E/DX2                !
 ! A5    A(5,1,18)             109.712          estimate D2E/DX2                !
 ! A6    A(10,1,18)            108.0217         estimate D2E/DX2                !
 ! A7    A(1,2,3)              107.184          estimate D2E/DX2                !
 ! A8    A(1,2,17)             118.5067         estimate D2E/DX2                !
 ! A9    A(3,2,17)             120.1978         estimate D2E/DX2                !
 ! A10   A(2,3,4)              108.0881         estimate D2E/DX2                !
 ! A11   A(2,3,9)              130.7971         estimate D2E/DX2                !
 ! A12   A(4,3,9)              121.1148         estimate D2E/DX2                !
 ! A13   A(3,4,5)              108.0876         estimate D2E/DX2                !
 ! A14   A(3,4,6)              121.1147         estimate D2E/DX2                !
 ! A15   A(5,4,6)              130.7977         estimate D2E/DX2                !
 ! A16   A(1,5,4)              107.183          estimate D2E/DX2                !
 ! A17   A(1,5,16)             118.5042         estimate D2E/DX2                !
 ! A18   A(4,5,16)             120.197          estimate D2E/DX2                !
 ! A19   A(4,6,7)              117.9709         estimate D2E/DX2                !
 ! A20   A(4,6,19)             121.3067         estimate D2E/DX2                !
 ! A21   A(7,6,19)             120.7214         estimate D2E/DX2                !
 ! A22   A(6,7,8)              120.9046         estimate D2E/DX2                !
 ! A23   A(6,7,20)             119.1507         estimate D2E/DX2                !
 ! A24   A(8,7,20)             119.9388         estimate D2E/DX2                !
 ! A25   A(7,8,9)              120.9048         estimate D2E/DX2                !
 ! A26   A(7,8,21)             119.9384         estimate D2E/DX2                !
 ! A27   A(9,8,21)             119.1508         estimate D2E/DX2                !
 ! A28   A(3,9,8)              117.9708         estimate D2E/DX2                !
 ! A29   A(3,9,22)             121.3066         estimate D2E/DX2                !
 ! A30   A(8,9,22)             120.7216         estimate D2E/DX2                !
 ! A31   A(1,10,11)            121.5414         estimate D2E/DX2                !
 ! A32   A(1,10,15)            119.3202         estimate D2E/DX2                !
 ! A33   A(11,10,15)           119.1384         estimate D2E/DX2                !
 ! A34   A(10,11,12)           120.3119         estimate D2E/DX2                !
 ! A35   A(10,11,23)           120.1258         estimate D2E/DX2                !
 ! A36   A(12,11,23)           119.5622         estimate D2E/DX2                !
 ! A37   A(11,12,13)           120.2364         estimate D2E/DX2                !
 ! A38   A(11,12,24)           119.7711         estimate D2E/DX2                !
 ! A39   A(13,12,24)           119.9925         estimate D2E/DX2                !
 ! A40   A(12,13,14)           119.7179         estimate D2E/DX2                !
 ! A41   A(12,13,25)           120.0768         estimate D2E/DX2                !
 ! A42   A(14,13,25)           120.2053         estimate D2E/DX2                !
 ! A43   A(13,14,15)           119.8379         estimate D2E/DX2                !
 ! A44   A(13,14,26)           120.2332         estimate D2E/DX2                !
 ! A45   A(15,14,26)           119.9289         estimate D2E/DX2                !
 ! A46   A(10,15,14)           120.7575         estimate D2E/DX2                !
 ! A47   A(10,15,27)           119.3722         estimate D2E/DX2                !
 ! A48   A(14,15,27)           119.8703         estimate D2E/DX2                !
 ! A49   A(5,16,28)            112.5552         estimate D2E/DX2                !
 ! A50   A(5,16,29)            109.2826         estimate D2E/DX2                !
 ! A51   A(5,16,30)            109.0215         estimate D2E/DX2                !
 ! A52   A(28,16,29)           108.8134         estimate D2E/DX2                !
 ! A53   A(28,16,30)           108.815          estimate D2E/DX2                !
 ! A54   A(29,16,30)           108.2616         estimate D2E/DX2                !
 ! A55   A(2,17,31)            112.5557         estimate D2E/DX2                !
 ! A56   A(2,17,32)            109.0215         estimate D2E/DX2                !
 ! A57   A(2,17,33)            109.2826         estimate D2E/DX2                !
 ! A58   A(31,17,32)           108.8148         estimate D2E/DX2                !
 ! A59   A(31,17,33)           108.8128         estimate D2E/DX2                !
 ! A60   A(32,17,33)           108.2619         estimate D2E/DX2                !
 ! D1    D(5,1,2,3)            -26.9209         estimate D2E/DX2                !
 ! D2    D(5,1,2,17)          -167.0133         estimate D2E/DX2                !
 ! D3    D(10,1,2,3)            95.8799         estimate D2E/DX2                !
 ! D4    D(10,1,2,17)          -44.2124         estimate D2E/DX2                !
 ! D5    D(18,1,2,3)          -142.9105         estimate D2E/DX2                !
 ! D6    D(18,1,2,17)           76.9972         estimate D2E/DX2                !
 ! D7    D(2,1,5,4)             26.9233         estimate D2E/DX2                !
 ! D8    D(2,1,5,16)           167.0103         estimate D2E/DX2                !
 ! D9    D(10,1,5,4)           -95.881          estimate D2E/DX2                !
 ! D10   D(10,1,5,16)           44.206          estimate D2E/DX2                !
 ! D11   D(18,1,5,4)           142.9136         estimate D2E/DX2                !
 ! D12   D(18,1,5,16)          -76.9994         estimate D2E/DX2                !
 ! D13   D(2,1,10,11)          -57.8211         estimate D2E/DX2                !
 ! D14   D(2,1,10,15)          122.1852         estimate D2E/DX2                !
 ! D15   D(5,1,10,11)           57.8909         estimate D2E/DX2                !
 ! D16   D(5,1,10,15)         -122.1028         estimate D2E/DX2                !
 ! D17   D(18,1,10,11)        -179.9674         estimate D2E/DX2                !
 ! D18   D(18,1,10,15)           0.0389         estimate D2E/DX2                !
 ! D19   D(1,2,3,4)             17.5445         estimate D2E/DX2                !
 ! D20   D(1,2,3,9)           -162.444          estimate D2E/DX2                !
 ! D21   D(17,2,3,4)           156.83           estimate D2E/DX2                !
 ! D22   D(17,2,3,9)           -23.1585         estimate D2E/DX2                !
 ! D23   D(1,2,17,31)           74.5294         estimate D2E/DX2                !
 ! D24   D(1,2,17,32)          -46.3068         estimate D2E/DX2                !
 ! D25   D(1,2,17,33)         -164.4561         estimate D2E/DX2                !
 ! D26   D(3,2,17,31)          -60.3048         estimate D2E/DX2                !
 ! D27   D(3,2,17,32)          178.8589         estimate D2E/DX2                !
 ! D28   D(3,2,17,33)           60.7096         estimate D2E/DX2                !
 ! D29   D(2,3,4,5)              0.0042         estimate D2E/DX2                !
 ! D30   D(2,3,4,6)           -179.9881         estimate D2E/DX2                !
 ! D31   D(9,3,4,5)            179.9941         estimate D2E/DX2                !
 ! D32   D(9,3,4,6)              0.0018         estimate D2E/DX2                !
 ! D33   D(2,3,9,8)           -178.8917         estimate D2E/DX2                !
 ! D34   D(2,3,9,22)             1.4651         estimate D2E/DX2                !
 ! D35   D(4,3,9,8)              1.121          estimate D2E/DX2                !
 ! D36   D(4,3,9,22)          -178.5222         estimate D2E/DX2                !
 ! D37   D(3,4,5,1)            -17.551          estimate D2E/DX2                !
 ! D38   D(3,4,5,16)          -156.8302         estimate D2E/DX2                !
 ! D39   D(6,4,5,1)            162.4403         estimate D2E/DX2                !
 ! D40   D(6,4,5,16)            23.1611         estimate D2E/DX2                !
 ! D41   D(3,4,6,7)             -1.1234         estimate D2E/DX2                !
 ! D42   D(3,4,6,19)           178.5214         estimate D2E/DX2                !
 ! D43   D(5,4,6,7)            178.8863         estimate D2E/DX2                !
 ! D44   D(5,4,6,19)            -1.4689         estimate D2E/DX2                !
 ! D45   D(1,5,16,28)          -74.5239         estimate D2E/DX2                !
 ! D46   D(1,5,16,29)          164.4613         estimate D2E/DX2                !
 ! D47   D(1,5,16,30)           46.3123         estimate D2E/DX2                !
 ! D48   D(4,5,16,28)           60.3041         estimate D2E/DX2                !
 ! D49   D(4,5,16,29)          -60.7108         estimate D2E/DX2                !
 ! D50   D(4,5,16,30)         -178.8597         estimate D2E/DX2                !
 ! D51   D(4,6,7,8)              1.1199         estimate D2E/DX2                !
 ! D52   D(4,6,7,20)          -179.7664         estimate D2E/DX2                !
 ! D53   D(19,6,7,8)          -178.5271         estimate D2E/DX2                !
 ! D54   D(19,6,7,20)            0.5866         estimate D2E/DX2                !
 ! D55   D(6,7,8,9)              0.0004         estimate D2E/DX2                !
 ! D56   D(6,7,8,21)           179.1068         estimate D2E/DX2                !
 ! D57   D(20,7,8,9)          -179.1063         estimate D2E/DX2                !
 ! D58   D(20,7,8,21)            0.0001         estimate D2E/DX2                !
 ! D59   D(7,8,9,3)             -1.1197         estimate D2E/DX2                !
 ! D60   D(7,8,9,22)           178.5257         estimate D2E/DX2                !
 ! D61   D(21,8,9,3)           179.767          estimate D2E/DX2                !
 ! D62   D(21,8,9,22)           -0.5876         estimate D2E/DX2                !
 ! D63   D(1,10,11,12)        -179.993          estimate D2E/DX2                !
 ! D64   D(1,10,11,23)           0.0065         estimate D2E/DX2                !
 ! D65   D(15,10,11,12)          0.0007         estimate D2E/DX2                !
 ! D66   D(15,10,11,23)       -179.9998         estimate D2E/DX2                !
 ! D67   D(1,10,15,14)         179.994          estimate D2E/DX2                !
 ! D68   D(1,10,15,27)          -0.0065         estimate D2E/DX2                !
 ! D69   D(11,10,15,14)          0.0002         estimate D2E/DX2                !
 ! D70   D(11,10,15,27)        179.9996         estimate D2E/DX2                !
 ! D71   D(10,11,12,13)         -0.001          estimate D2E/DX2                !
 ! D72   D(10,11,12,24)        179.9996         estimate D2E/DX2                !
 ! D73   D(23,11,12,13)        179.9995         estimate D2E/DX2                !
 ! D74   D(23,11,12,24)          0.0001         estimate D2E/DX2                !
 ! D75   D(11,12,13,14)          0.0004         estimate D2E/DX2                !
 ! D76   D(11,12,13,25)       -179.9996         estimate D2E/DX2                !
 ! D77   D(24,12,13,14)        179.9998         estimate D2E/DX2                !
 ! D78   D(24,12,13,25)         -0.0001         estimate D2E/DX2                !
 ! D79   D(12,13,14,15)          0.0004         estimate D2E/DX2                !
 ! D80   D(12,13,14,26)       -179.9996         estimate D2E/DX2                !
 ! D81   D(25,13,14,15)       -179.9996         estimate D2E/DX2                !
 ! D82   D(25,13,14,26)          0.0004         estimate D2E/DX2                !
 ! D83   D(13,14,15,10)         -0.0007         estimate D2E/DX2                !
 ! D84   D(13,14,15,27)        179.9999         estimate D2E/DX2                !
 ! D85   D(26,14,15,10)        179.9993         estimate D2E/DX2                !
 ! D86   D(26,14,15,27)         -0.0001         estimate D2E/DX2                !
 --------------------------------------------------------------------------------
 Trust Radius=3.00D-01 FncErr=1.00D-07 GrdErr=1.00D-06 EigMax=2.50D+02 EigMin=1.00D-04
 Number of steps in this run=    198 maximum allowed number of steps=    198.
 GradGradGradGradGradGradGradGradGradGradGradGradGradGradGradGradGradGrad

                          Input orientation:                          
 ---------------------------------------------------------------------
 Center     Atomic      Atomic             Coordinates (Angstroms)
 Number     Number       Type             X           Y           Z
 ---------------------------------------------------------------------
      1          6           0        0.327153    0.000877    1.325352
      2          7           0       -0.585003    1.142605    1.126985
      3          6           0       -1.616057    0.707145    0.283663
      4          6           0       -1.616246   -0.706095    0.284495
      5          7           0       -0.585365   -1.140828    1.128408
      6          6           0       -2.532930   -1.421370   -0.465370
      7          6           0       -3.487729   -0.694864   -1.215773
      8          6           0       -3.487556    0.694648   -1.216573
      9          6           0       -2.532572    1.421784   -0.467014
     10          6           0        1.531274    0.000024    0.384679
     11          6           0        1.373659   -0.000146   -1.008198
     12          6           0        2.490673   -0.001077   -1.842856
     13          6           0        3.779386   -0.001828   -1.295943
     14          6           0        3.942685   -0.001652    0.089525
     15          6           0        2.818957   -0.000735    0.922865
     16          6           0       -0.012273   -2.465648    0.959714
     17          6           0       -0.011562    2.467072    0.956695
     18          1           0        0.701910    0.001452    2.356346
     19          1           0       -2.520840   -2.507986   -0.485681
     20          1           0       -4.219788   -1.237884   -1.809061
     21          1           0       -4.219483    1.237162   -1.810485
     22          1           0       -2.520197    2.508372   -0.488592
     23          1           0        0.377933    0.000440   -1.444666
     24          1           0        2.358174   -0.001208   -2.922464
     25          1           0        4.648805   -0.002546   -1.949373
     26          1           0        4.940015   -0.002225    0.523404
     27          1           0        2.945815   -0.000599    2.004417
     28          1           0        0.438644   -2.607028   -0.033913
     29          1           0       -0.793274   -3.217970    1.102942
     30          1           0        0.756983   -2.620910    1.721494
     31          1           0        0.439341    2.607167   -0.037118
     32          1           0        0.757778    2.623025    1.718250
     33          1           0       -0.792352    3.219775    1.099071
 ---------------------------------------------------------------------
                    Distance matrix (angstroms):
                    1          2          3          4          5
     1  C    0.000000
     2  N    1.474761   0.000000
     3  C    2.315167   1.401389   0.000000
     4  C    2.315166   2.278364   1.413240   0.000000
     5  N    1.474776   2.283433   2.278360   1.401392   0.000000
     6  C    3.661905   3.592211   2.435627   1.383555   2.532162
     7  C    4.636238   4.158200   2.777965   2.398620   3.757364
     8  C    4.636239   3.757358   2.398618   2.777964   4.158199
     9  C    3.661910   2.532153   1.383555   2.435629   3.592209
    10  C    1.527996   2.516969   3.227370   3.227309   2.516910
    11  C    2.557466   3.114681   3.332802   3.333009   3.115127
    12  C    3.836451   4.425803   4.678556   4.678616   4.425997
    13  C    4.334640   5.121347   5.666445   5.666270   5.121118
    14  C    3.820909   4.783890   5.607111   5.606779   4.783329
    15  C    2.524101   3.596642   4.536411   4.536086   3.596035
    16  C    2.516475   3.657251   3.618809   2.474808   1.453286
    17  C    2.516496   1.453288   2.474817   3.618819   3.657277
    18  H    1.096991   2.114167   3.188571   3.188579   2.114169
    19  H    4.205389   4.435647   3.427475   2.158303   2.867136
    20  H    5.659836   5.243925   3.865494   3.382928   4.674096
    21  H    5.659839   4.674090   3.382928   3.865492   5.243925
    22  H    4.205393   2.867122   2.158302   3.427476   4.435643
    23  H    2.770484   2.974084   2.731767   2.732387   2.975088
    24  H    4.708396   5.135039   5.155146   5.155334   5.135437
    25  H    5.422224   6.178033   6.688693   6.688499   6.177779
    26  H    4.682053   5.674571   6.598694   6.598262   5.673823
    27  H    2.705276   3.813591   4.926720   4.926283   3.812708
    28  H    2.942992   4.056511   3.912339   2.817358   2.132916
    29  H    3.415523   4.365612   4.093253   2.767067   2.087677
    30  H    2.686159   4.039605   4.332970   3.371009   2.084297
    31  H    2.943070   2.132922   2.817383   3.912362   4.056592
    32  H    2.686162   2.084297   3.371013   4.332976   4.039620
    33  H    3.415523   2.087680   2.767072   4.093261   4.365611
                    6          7          8          9         10
     6  C    0.000000
     7  C    1.415117   0.000000
     8  C    2.439908   1.389512   0.000000
     9  C    2.843155   2.439910   1.415118   0.000000
    10  C    4.388701   5.313634   5.313677   4.388807   0.000000
    11  C    4.192371   4.915161   4.915035   4.192065   1.401766
    12  C    5.399193   6.051104   6.051073   5.399117   2.425357
    13  C    6.523058   7.300526   7.300673   6.523390   2.806867
    14  C    6.652601   7.575975   7.576226   6.653184   2.429408
    15  C    5.708599   6.695512   6.695734   5.709132   1.395627
    16  C    3.078163   4.466230   5.176995   4.847637   2.965255
    17  C    4.847633   5.176987   4.466219   3.078160   2.965446
    18  H    4.522244   5.549591   5.549585   4.522232   2.138999
    19  H    1.086873   2.180670   3.424267   3.929832   4.844302
    20  H    2.164408   1.087553   2.149858   3.423685   6.278505
    21  H    3.423681   2.149854   1.087553   2.164409   6.278572
    22  H    3.929832   3.424271   2.180673   1.086873   4.844464
    23  H    3.384330   3.934359   3.933950   3.383351   2.162568
    24  H    5.654827   6.129318   6.129179   5.654515   3.408953
    25  H    7.469448   8.198820   8.198990   7.469825   3.894459
    26  H    7.670499   8.633154   8.633487   7.671264   3.411563
    27  H    6.175361   7.227871   7.228168   6.176073   2.150460
    28  H    3.228342   4.524331   5.264485   5.024643   2.857583
    29  H    2.951911   4.359197   5.286576   5.197811   4.034217
    30  H    4.128535   5.509517   6.135249   5.652797   3.042350
    31  H    5.024630   5.264458   4.524308   3.228345   2.857870
    32  H    5.652794   6.135242   5.509508   4.128530   3.042505
    33  H    5.197818   5.286582   4.359196   2.951908   4.034400
                   11         12         13         14         15
    11  C    0.000000
    12  C    1.394408   0.000000
    13  C    2.422875   1.399963   0.000000
    14  C    2.793724   2.417113   1.395058   0.000000
    15  C    2.412031   2.785136   2.417754   1.399007   0.000000
    16  C    3.445603   4.493689   5.053224   4.740274   3.754067
    17  C    3.444823   4.493375   5.053823   4.741587   3.755403
    18  H    3.430948   4.564315   4.775990   3.954884   2.556709
    19  H    4.661481   5.765568   6.828630   6.956272   6.064960
    20  H    5.784464   6.823571   8.110358   8.471060   7.651006
    21  H    5.784275   6.823523   8.110595   8.471463   7.651355
    22  H    4.660984   5.765429   6.829177   6.957247   6.065838
    23  H    1.087187   2.149936   3.404703   3.880876   3.400559
    24  H    2.152600   1.087708   2.159957   3.403344   3.872838
    25  H    3.407697   2.160760   1.087594   2.157709   3.405598
    26  H    3.881327   3.405652   2.158028   1.087621   2.158346
    27  H    3.398165   3.874101   3.404000   2.158834   1.088966
    28  H    2.935868   3.778105   4.420446   4.368241   3.657060
    29  H    4.416662   5.459893   6.083374   5.813865   4.840583
    30  H    3.834046   4.751189   5.009933   4.435373   3.428537
    31  H    2.934966   3.777775   4.421243   4.369827   3.658591
    32  H    3.833256   4.750821   5.010521   4.436813   3.430045
    33  H    4.415889   5.459585   6.084045   5.815269   4.841930
                   16         17         18         19         20
    16  C    0.000000
    17  C    4.932721   0.000000
    18  H    2.923563   2.923585   0.000000
    19  H    2.895490   5.755703   4.975993   0.000000
    20  H    5.184274   6.251821   6.565796   2.500183   0.000000
    21  H    6.251833   5.184261   6.565788   4.320489   2.475047
    22  H    5.755705   2.895481   4.975972   5.016359   4.320496
    23  H    3.466250   3.464465   3.814794   3.951549   4.775486
    24  H    5.173373   5.172613   5.532544   6.002218   6.785177
    25  H    6.021238   6.021898   5.840994   7.734561   8.955316
    26  H    5.548331   5.550070   4.617491   7.934825   9.532535
    27  H    3.989757   3.991641   2.271337   6.509370   8.210929
    28  H    1.100277   5.189459   3.547790   2.995404   5.169786
    29  H    1.093831   5.740398   3.764475   2.451996   4.913400
    30  H    1.093696   5.202224   2.698676   3.953290   6.256663
    31  H    5.189516   1.100275   3.547867   5.926944   6.295370
    32  H    5.202205   1.093696   2.698691   6.475640   7.219743
    33  H    5.740381   1.093831   3.764460   6.189212   6.330503
                   21         22         23         24         25
    21  H    0.000000
    22  H    2.500190   0.000000
    23  H    4.774887   3.950058   0.000000
    24  H    6.784956   6.001685   2.470879   0.000000
    25  H    8.955596   7.735191   4.300591   2.488754   0.000000
    26  H    9.533075   7.936119   4.968490   4.305799   2.489866
    27  H    8.211396   6.510554   4.300023   4.961801   4.304955
    28  H    6.295408   5.926955   2.965266   4.338043   5.308274
    29  H    6.330496   6.189204   4.268512   6.040122   7.019388
    30  H    7.219752   6.475641   4.127920   5.567135   5.956289
    31  H    5.169757   2.995405   2.963104   4.337137   5.309134
    32  H    6.256653   3.953279   4.126290   5.566335   5.956943
    33  H    4.913400   2.451982   4.266648   6.039312   7.020153
                   26         27         28         29         30
    26  H    0.000000
    27  H    2.483995   0.000000
    28  H    5.230482   4.151406   0.000000
    29  H    6.599051   5.014471   1.784184   0.000000
    30  H    5.078453   3.425939   1.784093   1.772677   0.000000
    31  H    5.232511   4.153399   5.214196   6.062285   5.525070
    32  H    5.080423   3.428236   5.524977   6.074667   5.243935
    33  H    6.600962   5.016408   6.062230   6.437746   6.074656
                   31         32         33
    31  H    0.000000
    32  H    1.784088   0.000000
    33  H    1.784176   1.772680   0.000000
 Stoichiometry    C15H16N2
 Framework group  C1[X(C15H16N2)]
 Deg. of freedom    93
 Full point group                 C1      NOp   1
 Largest Abelian subgroup         C1      NOp   1
 Largest concise Abelian subgroup C1      NOp   1
                         Standard orientation:                         
 ---------------------------------------------------------------------
 Center     Atomic      Atomic             Coordinates (Angstroms)
 Number     Number       Type             X           Y           Z
 ---------------------------------------------------------------------
      1          6           0        0.372407    0.000116   -1.298824
      2          7           0       -0.547330   -1.141500   -1.138460
      3          6           0       -1.611524   -0.706426   -0.337152
      4          6           0       -1.611299    0.706813   -0.336804
      5          7           0       -0.547021    1.141933   -1.137979
      6          6           0       -2.557361    1.421744    0.375983
      7          6           0       -3.541916    0.694906    1.086557
      8          6           0       -3.542149   -0.694607    1.086195
      9          6           0       -2.557834   -1.421410    0.375253
     10          6           0        1.537508   -0.000174   -0.310233
     11          6           0        1.323702   -0.001110    1.075131
     12          6           0        2.406054   -0.001209    1.954272
     13          6           0        3.715828   -0.000394    1.459915
     14          6           0        3.935013    0.000528    0.082183
     15          6           0        2.845899    0.000641   -0.795912
     16          6           0        0.019136    2.466440   -0.945138
     17          6           0        0.018400   -2.466281   -0.946235
     18          1           0        0.788544    0.000282   -2.313822
     19          1           0       -2.545810    2.508339    0.397679
     20          1           0       -4.297219    1.237656    1.650215
     21          1           0       -4.297638   -1.237391    1.649572
     22          1           0       -2.546633   -2.508019    0.396401
     23          1           0        0.311143   -0.001756    1.470981
     24          1           0        2.230012   -0.001931    3.027639
     25          1           0        4.558115   -0.000480    2.147965
     26          1           0        4.949071    0.001159   -0.311015
     27          1           0        3.016385    0.001362   -1.871450
     28          1           0        0.429547    2.606861    0.066027
     29          1           0       -0.755232    3.219117   -1.119196
     30          1           0        0.818607    2.622100   -1.675061
     31          1           0        0.428713   -2.607335    0.064879
     32          1           0        0.817861   -2.621835   -1.676191
     33          1           0       -0.756197   -3.218629   -1.120698
 ---------------------------------------------------------------------
 Rotational constants (GHZ):           0.8955531           0.3467895           0.3301971
 Standard basis: 6-31+G(d,p) (6D, 7F)
 There are   403 symmetry adapted cartesian basis functions of A   symmetry.
 There are   403 symmetry adapted basis functions of A   symmetry.
   403 basis functions,   656 primitive gaussians,   403 cartesian basis functions
    60 alpha electrons       60 beta electrons
       nuclear repulsion energy      1182.4648350021 Hartrees.
 NAtoms=   33 NActive=   33 NUniq=   33 SFac= 1.00D+00 NAtFMM=   60 NAOKFM=F Big=F
 Integral buffers will be    131072 words long.
 Raffenetti 2 integral format.
 Two-electron integral symmetry is turned on.
 Nuclear repulsion after empirical dispersion term =     1182.4379141066 Hartrees.
 ------------------------------------------------------------------------------
 Polarizable Continuum Model (PCM)
 =================================
 Model                : PCM.
 Atomic radii         : SMD-Coulomb.
 Polarization charges : Total charges.
 Charge compensation  : None.
 Solution method      : On-the-fly selection.
 Cavity type          : VdW (van der Waals Surface) (Alpha=1.000).
 Cavity algorithm     : GePol (No added spheres)
                        Default sphere list used, NSphG=   33.
                        Lebedev-Laikov grids with approx.  5.0 points / Ang**2.
                        Smoothing algorithm: York/Karplus (Gamma=1.0000).
                        Polarization charges: spherical gaussians, with
                                              point-specific exponents (IZeta= 3).
                        Self-potential: point-specific (ISelfS= 7).
                        Self-field    : sphere-specific E.n sum rule (ISelfD= 2).
 1st derivatives      : Analytical E(r).r(x)/FMM algorithm (CHGder, D1EAlg=3).
                        Cavity 1st derivative terms included.
 Solvent              : Acetonitrile, Eps=  35.688000 Eps(inf)=   1.806874
 ------------------------------------------------------------------------------
 ------------------------------------------------------------------------------
 Atomic radii for non-electrostatic terms: SMD-CDS.
 ------------------------------------------------------------------------------
 Nuclear repulsion after PCM non-electrostatic terms =     1182.4325550089 Hartrees.
 One-electron integrals computed using PRISM.
 NBasis=   403 RedAO= T EigKep=  1.06D-06  NBF=   403
 NBsUse=   403 1.00D-06 EigRej= -1.00D+00 NBFU=   403
 ExpMin= 4.38D-02 ExpMax= 4.17D+03 ExpMxC= 6.27D+02 IAcc=3 IRadAn=         5 AccDes= 0.00D+00
 Harris functional with IExCor= 4639 and IRadAn=       5 diagonalized for initial guess.
 HarFok:  IExCor= 4639 AccDes= 0.00D+00 IRadAn=         5 IDoV= 1 UseB2=F ITyADJ=14
 ICtDFT=  3500011 ScaDFX=  1.000000  1.000000  1.000000  1.000000
 FoFCou: FMM=F IPFlag=           0 FMFlag=      100000 FMFlg1=           0
         NFxFlg=           0 DoJE=T BraDBF=F KetDBF=T FulRan=T
         wScrn=  0.000000 ICntrl=       500 IOpCl=  0 I1Cent=   200000004 NGrid=           0
         NMat0=    1 NMatS0=      1 NMatT0=    0 NMatD0=    1 NMtDS0=    0 NMtDT0=    0
 Petite list used in FoFCou.
 Initial guess <Sx>= 0.0000 <Sy>= 0.0000 <Sz>= 0.0000 <S**2>=-0.0000 S=-0.0000
 Requested convergence on RMS density matrix=1.00D-08 within 500 cycles.
 Requested convergence on MAX density matrix=1.00D-06.
 Requested convergence on             energy=1.00D-06.
 No special actions if energy rises.
 Inv3:  Mode=1 IEnd=    17366508.
 Iteration    1 A*A^-1 deviation from unit magnitude is 5.77D-15 for   2397.
 Iteration    1 A*A^-1 deviation from orthogonality  is 1.71D-15 for   2055    416.
 Iteration    1 A^-1*A deviation from unit magnitude is 5.33D-15 for   2397.
 Iteration    1 A^-1*A deviation from orthogonality  is 1.81D-15 for   2393   1493.
 Error on total polarization charges =  0.06233
 SCF Done:  E(UwB97XD) =  -690.564122518     A.U. after   17 cycles
            NFock= 17  Conv=0.34D-08     -V/T= 2.0097
 <Sx>= 0.0000 <Sy>= 0.0000 <Sz>= 0.0000 <S**2>=-0.0000 S=-0.0000
 <L.S>= 0.000000000000E+00
 SMD-CDS (non-electrostatic) energy       (kcal/mol) =      -3.36
 (included in total energy above)
 Annihilation of the first spin contaminant:
 S**2 before annihilation    -0.0000,   after    -0.0000

 **********************************************************************

            Population analysis using the SCF Density.

 **********************************************************************

 Orbital symmetries:
 Alpha Orbitals:
       Occupied  (A) (A) (A) (A) (A) (A) (A) (A) (A) (A) (A) (A)
                 (A) (A) (A) (A) (A) (A) (A) (A) (A) (A) (A) (A)
                 (A) (A) (A) (A) (A) (A) (A) (A) (A) (A) (A) (A)
                 (A) (A) (A) (A) (A) (A) (A) (A) (A) (A) (A) (A)
                 (A) (A) (A) (A) (A) (A) (A) (A) (A) (A) (A) (A)
       Virtual   (A) (A) (A) (A) (A) (A) (A) (A) (A) (A) (A) (A)
                 (A) (A) (A) (A) (A) (A) (A) (A) (A) (A) (A) (A)
                 (A) (A) (A) (A) (A) (A) (A) (A) (A) (A) (A) (A)
                 (A) (A) (A) (A) (A) (A) (A) (A) (A) (A) (A) (A)
                 (A) (A) (A) (A) (A) (A) (A) (A) (A) (A) (A) (A)
                 (A) (A) (A) (A) (A) (A) (A) (A) (A) (A) (A) (A)
                 (A) (A) (A) (A) (A) (A) (A) (A) (A) (A) (A) (A)
                 (A) (A) (A) (A) (A) (A) (A) (A) (A) (A) (A) (A)
                 (A) (A) (A) (A) (A) (A) (A) (A) (A) (A) (A) (A)
                 (A) (A) (A) (A) (A) (A) (A) (A) (A) (A) (A) (A)
                 (A) (A) (A) (A) (A) (A) (A) (A) (A) (A) (A) (A)
                 (A) (A) (A) (A) (A) (A) (A) (A) (A) (A) (A) (A)
                 (A) (A) (A) (A) (A) (A) (A) (A) (A) (A) (A) (A)
                 (A) (A) (A) (A) (A) (A) (A) (A) (A) (A) (A) (A)
                 (A) (A) (A) (A) (A) (A) (A) (A) (A) (A) (A) (A)
                 (A) (A) (A) (A) (A) (A) (A) (A) (A) (A) (A) (A)
                 (A) (A) (A) (A) (A) (A) (A) (A) (A) (A) (A) (A)
                 (A) (A) (A) (A) (A) (A) (A) (A) (A) (A) (A) (A)
                 (A) (A) (A) (A) (A) (A) (A) (A) (A) (A) (A) (A)
                 (A) (A) (A) (A) (A) (A) (A) (A) (A) (A) (A) (A)
                 (A) (A) (A) (A) (A) (A) (A) (A) (A) (A) (A) (A)
                 (A) (A) (A) (A) (A) (A) (A) (A) (A) (A) (A) (A)
                 (A) (A) (A) (A) (A) (A) (A) (A) (A) (A) (A) (A)
                 (A) (A) (A) (A) (A) (A) (A) (A) (A) (A) (A) (A)
                 (A) (A) (A) (A) (A) (A) (A) (A) (A) (A) (A) (A)
                 (A) (A) (A) (A) (A) (A) (A) (A) (A) (A) (A) (A)
                 (A) (A) (A) (A) (A) (A) (A) (A) (A) (A) (A) (A)
                 (A) (A) (A) (A) (A) (A) (A) (A) (A) (A) (A) (A)
                 (A) (A) (A) (A) (A) (A) (A)
 Beta  Orbitals:
       Occupied  (A) (A) (A) (A) (A) (A) (A) (A) (A) (A) (A) (A)
                 (A) (A) (A) (A) (A) (A) (A) (A) (A) (A) (A) (A)
                 (A) (A) (A) (A) (A) (A) (A) (A) (A) (A) (A) (A)
                 (A) (A) (A) (A) (A) (A) (A) (A) (A) (A) (A) (A)
                 (A) (A) (A) (A) (A) (A) (A) (A) (A) (A) (A) (A)
       Virtual   (A) (A) (A) (A) (A) (A) (A) (A) (A) (A) (A) (A)
                 (A) (A) (A) (A) (A) (A) (A) (A) (A) (A) (A) (A)
                 (A) (A) (A) (A) (A) (A) (A) (A) (A) (A) (A) (A)
                 (A) (A) (A) (A) (A) (A) (A) (A) (A) (A) (A) (A)
                 (A) (A) (A) (A) (A) (A) (A) (A) (A) (A) (A) (A)
                 (A) (A) (A) (A) (A) (A) (A) (A) (A) (A) (A) (A)
                 (A) (A) (A) (A) (A) (A) (A) (A) (A) (A) (A) (A)
                 (A) (A) (A) (A) (A) (A) (A) (A) (A) (A) (A) (A)
                 (A) (A) (A) (A) (A) (A) (A) (A) (A) (A) (A) (A)
                 (A) (A) (A) (A) (A) (A) (A) (A) (A) (A) (A) (A)
                 (A) (A) (A) (A) (A) (A) (A) (A) (A) (A) (A) (A)
                 (A) (A) (A) (A) (A) (A) (A) (A) (A) (A) (A) (A)
                 (A) (A) (A) (A) (A) (A) (A) (A) (A) (A) (A) (A)
                 (A) (A) (A) (A) (A) (A) (A) (A) (A) (A) (A) (A)
                 (A) (A) (A) (A) (A) (A) (A) (A) (A) (A) (A) (A)
                 (A) (A) (A) (A) (A) (A) (A) (A) (A) (A) (A) (A)
                 (A) (A) (A) (A) (A) (A) (A) (A) (A) (A) (A) (A)
                 (A) (A) (A) (A) (A) (A) (A) (A) (A) (A) (A) (A)
                 (A) (A) (A) (A) (A) (A) (A) (A) (A) (A) (A) (A)
                 (A) (A) (A) (A) (A) (A) (A) (A) (A) (A) (A) (A)
                 (A) (A) (A) (A) (A) (A) (A) (A) (A) (A) (A) (A)
                 (A) (A) (A) (A) (A) (A) (A) (A) (A) (A) (A) (A)
                 (A) (A) (A) (A) (A) (A) (A) (A) (A) (A) (A) (A)
                 (A) (A) (A) (A) (A) (A) (A) (A) (A) (A) (A) (A)
                 (A) (A) (A) (A) (A) (A) (A) (A) (A) (A) (A) (A)
                 (A) (A) (A) (A) (A) (A) (A) (A) (A) (A) (A) (A)
                 (A) (A) (A) (A) (A) (A) (A) (A) (A) (A) (A) (A)
                 (A) (A) (A) (A) (A) (A) (A) (A) (A) (A) (A) (A)
                 (A) (A) (A) (A) (A) (A) (A)
 The electronic state is 1-A.
 Alpha  occ. eigenvalues --  -14.47142 -14.47142 -10.36957 -10.33417 -10.33366
 Alpha  occ. eigenvalues --  -10.31687 -10.31687 -10.31058 -10.30746 -10.30720
 Alpha  occ. eigenvalues --  -10.30670 -10.30641 -10.30595 -10.29797 -10.29797
 Alpha  occ. eigenvalues --  -10.29623 -10.29564  -1.09923  -1.00241  -0.96278
 Alpha  occ. eigenvalues --   -0.94236  -0.86825  -0.84749  -0.84422  -0.83922
 Alpha  occ. eigenvalues --   -0.81292  -0.76201  -0.73972  -0.70153  -0.68464
 Alpha  occ. eigenvalues --   -0.67987  -0.66547  -0.61318  -0.59568  -0.58570
 Alpha  occ. eigenvalues --   -0.57284  -0.56010  -0.53459  -0.53292  -0.52857
 Alpha  occ. eigenvalues --   -0.51974  -0.51553  -0.50396  -0.49844  -0.49821
 Alpha  occ. eigenvalues --   -0.47824  -0.46860  -0.45744  -0.45622  -0.45390
 Alpha  occ. eigenvalues --   -0.43368  -0.43275  -0.42089  -0.41967  -0.37170
 Alpha  occ. eigenvalues --   -0.36994  -0.33458  -0.33164  -0.29940  -0.24961
 Alpha virt. eigenvalues --    0.04186   0.05352   0.06192   0.06746   0.07845
 Alpha virt. eigenvalues --    0.07884   0.08150   0.08257   0.09474   0.09655
 Alpha virt. eigenvalues --    0.09887   0.10330   0.11107   0.11220   0.12140
 Alpha virt. eigenvalues --    0.12421   0.12557   0.13284   0.13286   0.14155
 Alpha virt. eigenvalues --    0.14543   0.15170   0.15564   0.16125   0.16292
 Alpha virt. eigenvalues --    0.17741   0.18325   0.18622   0.18783   0.18904
 Alpha virt. eigenvalues --    0.19832   0.19938   0.20519   0.20791   0.21435
 Alpha virt. eigenvalues --    0.21673   0.22030   0.22230   0.22477   0.22901
 Alpha virt. eigenvalues --    0.23335   0.23477   0.23887   0.24612   0.24620
 Alpha virt. eigenvalues --    0.24813   0.25190   0.26087   0.26467   0.26965
 Alpha virt. eigenvalues --    0.27043   0.27283   0.27602   0.28301   0.28356
 Alpha virt. eigenvalues --    0.28881   0.29030   0.29127   0.29709   0.29999
 Alpha virt. eigenvalues --    0.30506   0.31138   0.31588   0.31589   0.32059
 Alpha virt. eigenvalues --    0.32550   0.32911   0.33078   0.33121   0.33399
 Alpha virt. eigenvalues --    0.33814   0.34514   0.35612   0.36115   0.36168
 Alpha virt. eigenvalues --    0.36470   0.36991   0.37188   0.37652   0.37927
 Alpha virt. eigenvalues --    0.38005   0.38247   0.38993   0.39481   0.39640
 Alpha virt. eigenvalues --    0.39839   0.40571   0.42128   0.42759   0.43092
 Alpha virt. eigenvalues --    0.43405   0.44171   0.45475   0.46680   0.47055
 Alpha virt. eigenvalues --    0.47062   0.48634   0.49370   0.50556   0.51003
 Alpha virt. eigenvalues --    0.52725   0.53492   0.55081   0.56053   0.57110
 Alpha virt. eigenvalues --    0.66400   0.67382   0.70672   0.71365   0.75632
 Alpha virt. eigenvalues --    0.76268   0.76760   0.78037   0.78179   0.78475
 Alpha virt. eigenvalues --    0.78552   0.80551   0.80845   0.81165   0.81893
 Alpha virt. eigenvalues --    0.82140   0.83072   0.83620   0.84600   0.85038
 Alpha virt. eigenvalues --    0.87167   0.87724   0.88743   0.88827   0.88957
 Alpha virt. eigenvalues --    0.90535   0.91693   0.91709   0.94828   0.95930
 Alpha virt. eigenvalues --    0.96244   0.96832   0.98339   0.99442   1.00023
 Alpha virt. eigenvalues --    1.00494   1.01288   1.02397   1.03168   1.03550
 Alpha virt. eigenvalues --    1.04371   1.06069   1.06983   1.07277   1.08557
 Alpha virt. eigenvalues --    1.08740   1.09719   1.10771   1.11850   1.12128
 Alpha virt. eigenvalues --    1.12780   1.14280   1.14308   1.15939   1.17132
 Alpha virt. eigenvalues --    1.17980   1.19373   1.20393   1.21836   1.22044
 Alpha virt. eigenvalues --    1.24093   1.25177   1.25859   1.26614   1.26693
 Alpha virt. eigenvalues --    1.28141   1.29427   1.30976   1.32781   1.33386
 Alpha virt. eigenvalues --    1.34781   1.35115   1.36217   1.37326   1.39829
 Alpha virt. eigenvalues --    1.39848   1.43134   1.45100   1.46189   1.47582
 Alpha virt. eigenvalues --    1.47801   1.48819   1.48998   1.50156   1.50356
 Alpha virt. eigenvalues --    1.50881   1.51534   1.52929   1.53779   1.55034
 Alpha virt. eigenvalues --    1.58936   1.62654   1.64700   1.68370   1.70981
 Alpha virt. eigenvalues --    1.71610   1.73019   1.80173   1.83737   1.85577
 Alpha virt. eigenvalues --    1.85812   1.89282   1.89589   1.92746   1.93566
 Alpha virt. eigenvalues --    1.94276   1.96751   1.98482   1.98850   1.99443
 Alpha virt. eigenvalues --    2.00766   2.00835   2.02041   2.03216   2.04021
 Alpha virt. eigenvalues --    2.05254   2.07309   2.07823   2.09356   2.09645
 Alpha virt. eigenvalues --    2.10395   2.11123   2.11628   2.11650   2.11987
 Alpha virt. eigenvalues --    2.12672   2.14523   2.14860   2.15741   2.16206
 Alpha virt. eigenvalues --    2.17034   2.18046   2.21263   2.22965   2.23503
 Alpha virt. eigenvalues --    2.24709   2.25097   2.28109   2.30962   2.33281
 Alpha virt. eigenvalues --    2.36451   2.36623   2.37981   2.38927   2.39205
 Alpha virt. eigenvalues --    2.40194   2.40950   2.45285   2.46623   2.48437
 Alpha virt. eigenvalues --    2.49148   2.49298   2.49935   2.50330   2.51030
 Alpha virt. eigenvalues --    2.53913   2.55372   2.56487   2.58054   2.58081
 Alpha virt. eigenvalues --    2.61158   2.61817   2.62039   2.63815   2.65196
 Alpha virt. eigenvalues --    2.66040   2.66100   2.67592   2.68794   2.69113
 Alpha virt. eigenvalues --    2.69460   2.70394   2.71629   2.71906   2.74809
 Alpha virt. eigenvalues --    2.76267   2.76861   2.78876   2.80318   2.81838
 Alpha virt. eigenvalues --    2.82627   2.83496   2.84726   2.87093   2.89049
 Alpha virt. eigenvalues --    2.89103   2.90325   2.90406   2.91089   2.93060
 Alpha virt. eigenvalues --    2.97997   3.00767   3.00797   3.05226   3.09122
 Alpha virt. eigenvalues --    3.10559   3.10917   3.17477   3.18910   3.21259
 Alpha virt. eigenvalues --    3.28323   3.29418   3.32978   3.37153   3.37885
 Alpha virt. eigenvalues --    3.38136   3.38720   3.39347   3.45236   3.48001
 Alpha virt. eigenvalues --    3.49685   3.53395   3.58023   3.58087   3.59012
 Alpha virt. eigenvalues --    3.59866   3.60923   3.62707   3.64974   3.96139
 Alpha virt. eigenvalues --    4.00015   4.40134   4.42157   4.43430   4.46516
 Alpha virt. eigenvalues --    4.52883   4.55613   4.56634   4.60041   4.63419
 Alpha virt. eigenvalues --    4.67643   4.68130   4.73087   4.73696   4.74336
 Alpha virt. eigenvalues --    4.86979   4.99775   5.00718
  Beta  occ. eigenvalues --  -14.47142 -14.47142 -10.36957 -10.33417 -10.33366
  Beta  occ. eigenvalues --  -10.31687 -10.31687 -10.31058 -10.30746 -10.30720
  Beta  occ. eigenvalues --  -10.30670 -10.30641 -10.30595 -10.29797 -10.29797
  Beta  occ. eigenvalues --  -10.29623 -10.29564  -1.09923  -1.00241  -0.96278
  Beta  occ. eigenvalues --   -0.94236  -0.86825  -0.84749  -0.84422  -0.83922
  Beta  occ. eigenvalues --   -0.81292  -0.76201  -0.73972  -0.70153  -0.68464
  Beta  occ. eigenvalues --   -0.67987  -0.66547  -0.61318  -0.59568  -0.58570
  Beta  occ. eigenvalues --   -0.57284  -0.56010  -0.53459  -0.53292  -0.52857
  Beta  occ. eigenvalues --   -0.51974  -0.51553  -0.50396  -0.49844  -0.49821
  Beta  occ. eigenvalues --   -0.47824  -0.46860  -0.45744  -0.45622  -0.45390
  Beta  occ. eigenvalues --   -0.43368  -0.43275  -0.42089  -0.41967  -0.37170
  Beta  occ. eigenvalues --   -0.36994  -0.33458  -0.33164  -0.29940  -0.24961
  Beta virt. eigenvalues --    0.04186   0.05352   0.06192   0.06746   0.07845
  Beta virt. eigenvalues --    0.07884   0.08150   0.08257   0.09474   0.09655
  Beta virt. eigenvalues --    0.09887   0.10330   0.11107   0.11220   0.12140
  Beta virt. eigenvalues --    0.12421   0.12557   0.13284   0.13286   0.14155
  Beta virt. eigenvalues --    0.14543   0.15170   0.15564   0.16125   0.16292
  Beta virt. eigenvalues --    0.17741   0.18325   0.18622   0.18783   0.18904
  Beta virt. eigenvalues --    0.19832   0.19938   0.20519   0.20791   0.21435
  Beta virt. eigenvalues --    0.21673   0.22030   0.22230   0.22477   0.22901
  Beta virt. eigenvalues --    0.23335   0.23477   0.23887   0.24612   0.24620
  Beta virt. eigenvalues --    0.24813   0.25190   0.26087   0.26467   0.26965
  Beta virt. eigenvalues --    0.27043   0.27283   0.27602   0.28301   0.28356
  Beta virt. eigenvalues --    0.28881   0.29030   0.29127   0.29709   0.29999
  Beta virt. eigenvalues --    0.30506   0.31138   0.31588   0.31589   0.32059
  Beta virt. eigenvalues --    0.32550   0.32911   0.33078   0.33121   0.33399
  Beta virt. eigenvalues --    0.33814   0.34514   0.35612   0.36115   0.36168
  Beta virt. eigenvalues --    0.36470   0.36991   0.37188   0.37652   0.37927
  Beta virt. eigenvalues --    0.38005   0.38247   0.38993   0.39481   0.39640
  Beta virt. eigenvalues --    0.39839   0.40571   0.42128   0.42759   0.43092
  Beta virt. eigenvalues --    0.43405   0.44171   0.45475   0.46680   0.47055
  Beta virt. eigenvalues --    0.47062   0.48634   0.49370   0.50556   0.51003
  Beta virt. eigenvalues --    0.52725   0.53492   0.55081   0.56053   0.57110
  Beta virt. eigenvalues --    0.66400   0.67382   0.70672   0.71365   0.75632
  Beta virt. eigenvalues --    0.76268   0.76760   0.78037   0.78179   0.78475
  Beta virt. eigenvalues --    0.78552   0.80551   0.80845   0.81165   0.81893
  Beta virt. eigenvalues --    0.82140   0.83072   0.83620   0.84600   0.85038
  Beta virt. eigenvalues --    0.87167   0.87724   0.88743   0.88827   0.88957
  Beta virt. eigenvalues --    0.90535   0.91693   0.91709   0.94828   0.95930
  Beta virt. eigenvalues --    0.96244   0.96832   0.98339   0.99442   1.00023
  Beta virt. eigenvalues --    1.00494   1.01288   1.02397   1.03168   1.03550
  Beta virt. eigenvalues --    1.04371   1.06069   1.06983   1.07277   1.08557
  Beta virt. eigenvalues --    1.08740   1.09719   1.10771   1.11850   1.12128
  Beta virt. eigenvalues --    1.12780   1.14280   1.14308   1.15939   1.17132
  Beta virt. eigenvalues --    1.17980   1.19373   1.20393   1.21836   1.22044
  Beta virt. eigenvalues --    1.24093   1.25177   1.25859   1.26614   1.26693
  Beta virt. eigenvalues --    1.28141   1.29427   1.30976   1.32781   1.33386
  Beta virt. eigenvalues --    1.34781   1.35115   1.36217   1.37326   1.39829
  Beta virt. eigenvalues --    1.39848   1.43134   1.45100   1.46189   1.47582
  Beta virt. eigenvalues --    1.47801   1.48819   1.48998   1.50156   1.50356
  Beta virt. eigenvalues --    1.50881   1.51534   1.52929   1.53779   1.55034
  Beta virt. eigenvalues --    1.58936   1.62654   1.64700   1.68370   1.70981
  Beta virt. eigenvalues --    1.71610   1.73019   1.80173   1.83737   1.85577
  Beta virt. eigenvalues --    1.85812   1.89282   1.89589   1.92746   1.93566
  Beta virt. eigenvalues --    1.94276   1.96751   1.98482   1.98850   1.99443
  Beta virt. eigenvalues --    2.00766   2.00835   2.02041   2.03216   2.04021
  Beta virt. eigenvalues --    2.05254   2.07309   2.07823   2.09356   2.09645
  Beta virt. eigenvalues --    2.10395   2.11123   2.11628   2.11650   2.11987
  Beta virt. eigenvalues --    2.12672   2.14523   2.14860   2.15741   2.16206
  Beta virt. eigenvalues --    2.17034   2.18046   2.21263   2.22965   2.23503
  Beta virt. eigenvalues --    2.24709   2.25097   2.28109   2.30962   2.33281
  Beta virt. eigenvalues --    2.36451   2.36623   2.37981   2.38927   2.39205
  Beta virt. eigenvalues --    2.40194   2.40950   2.45285   2.46623   2.48437
  Beta virt. eigenvalues --    2.49148   2.49298   2.49935   2.50330   2.51030
  Beta virt. eigenvalues --    2.53913   2.55372   2.56487   2.58054   2.58081
  Beta virt. eigenvalues --    2.61158   2.61817   2.62039   2.63815   2.65196
  Beta virt. eigenvalues --    2.66040   2.66100   2.67592   2.68794   2.69113
  Beta virt. eigenvalues --    2.69460   2.70394   2.71629   2.71906   2.74809
  Beta virt. eigenvalues --    2.76267   2.76861   2.78876   2.80318   2.81838
  Beta virt. eigenvalues --    2.82627   2.83496   2.84726   2.87093   2.89049
  Beta virt. eigenvalues --    2.89103   2.90325   2.90406   2.91089   2.93060
  Beta virt. eigenvalues --    2.97997   3.00767   3.00797   3.05226   3.09122
  Beta virt. eigenvalues --    3.10559   3.10917   3.17477   3.18910   3.21259
  Beta virt. eigenvalues --    3.28323   3.29418   3.32978   3.37153   3.37885
  Beta virt. eigenvalues --    3.38136   3.38720   3.39347   3.45236   3.48001
  Beta virt. eigenvalues --    3.49685   3.53395   3.58023   3.58087   3.59012
  Beta virt. eigenvalues --    3.59866   3.60923   3.62707   3.64974   3.96139
  Beta virt. eigenvalues --    4.00015   4.40134   4.42157   4.43430   4.46516
  Beta virt. eigenvalues --    4.52883   4.55613   4.56634   4.60041   4.63419
  Beta virt. eigenvalues --    4.67643   4.68130   4.73087   4.73696   4.74336
  Beta virt. eigenvalues --    4.86979   4.99775   5.00718
          Condensed to atoms (all electrons):
               1          2          3          4          5          6
     1  C   25.654458  -1.584091  -1.961003  -1.942500  -1.587171  -0.271029
     2  N   -1.584091   7.961343  -1.501238   1.333912  -0.239930  -0.499905
     3  C   -1.961003  -1.501238  19.655237  -5.715555   1.335961   0.316056
     4  C   -1.942500   1.333912  -5.715555  19.642974  -1.501209  -5.833589
     5  N   -1.587171  -0.239930   1.335961  -1.501209   7.961365   0.532705
     6  C   -0.271029  -0.499905   0.316056  -5.833589   0.532705  13.074032
     7  C   -0.068749   0.144653  -1.478993   0.833006  -0.062116  -0.407464
     8  C   -0.070775  -0.061718   0.832426  -1.477908   0.144670   0.768541
     9  C   -0.265118   0.532533  -5.839713   0.313101  -0.500402  -2.154614
    10  C   -8.622021   0.388877   0.653816   0.647091   0.390660   0.210759
    11  C   -4.782380   0.992996   0.081593   0.078417   0.992087  -0.449838
    12  C    0.254604  -0.130173   0.130664   0.132760  -0.131249   0.126303
    13  C   -0.588460   0.049970   0.001520   0.001099   0.050075   0.008592
    14  C   -0.239837   0.047908  -0.030305  -0.030043   0.048008  -0.030504
    15  C    2.804405  -0.310410  -0.236681  -0.237681  -0.308784   0.279525
    16  C    0.064894  -0.143880   0.546749  -1.007958   0.256958   0.309590
    17  C    0.066030   0.256847  -1.008249   0.546642  -0.143931  -0.117985
    18  H   -0.096385   0.033996   0.017097   0.017040   0.034045   0.007266
    19  H   -0.000873  -0.000230   0.068826   0.139500  -0.006840   0.114625
    20  H    0.003666   0.000448  -0.012852   0.009419  -0.001126   0.011076
    21  H    0.003670  -0.001126   0.009405  -0.012833   0.000448   0.012195
    22  H   -0.000832  -0.006828   0.139438   0.068827  -0.000230  -0.006873
    23  H    0.192070  -0.007671   0.002224   0.003054  -0.007761  -0.013839
    24  H    0.002716  -0.000188  -0.000676  -0.000670  -0.000189   0.000496
    25  H   -0.000718  -0.000001   0.000108   0.000106  -0.000001  -0.000001
    26  H    0.003109  -0.000130  -0.000227  -0.000226  -0.000130   0.000033
    27  H   -0.033937   0.000625  -0.001476  -0.001508   0.000639   0.000834
    28  H   -0.006236   0.005542  -0.076776   0.011848  -0.079736   0.089550
    29  H    0.026483  -0.004437  -0.004266  -0.079621  -0.040308   0.040100
    30  H   -0.030497  -0.002279   0.070923   0.011344  -0.045137  -0.070994
    31  H   -0.006428  -0.079736   0.011888  -0.076750   0.005541   0.008550
    32  H   -0.030495  -0.045154   0.011360   0.070899  -0.002276   0.003790
    33  H    0.026556  -0.040308  -0.079642  -0.004297  -0.004438  -0.007165
               7          8          9         10         11         12
     1  C   -0.068749  -0.070775  -0.265118  -8.622021  -4.782380   0.254604
     2  N    0.144653  -0.061718   0.532533   0.388877   0.992996  -0.130173
     3  C   -1.478993   0.832426  -5.839713   0.653816   0.081593   0.130664
     4  C    0.833006  -1.477908   0.313101   0.647091   0.078417   0.132760
     5  N   -0.062116   0.144670  -0.500402   0.390660   0.992087  -0.131249
     6  C   -0.407464   0.768541  -2.154614   0.210759  -0.449838   0.126303
     7  C    6.120217   0.137481   0.769091  -0.035802   0.086284   0.024129
     8  C    0.137481   6.120070  -0.406768  -0.035237   0.086753   0.023832
     9  C    0.769091  -0.406768  13.079640   0.208851  -0.451947   0.128187
    10  C   -0.035802  -0.035237   0.208851  23.598553   0.025724  -1.994202
    11  C    0.086284   0.086753  -0.451947   0.025724  25.471832  -0.848917
    12  C    0.024129   0.023832   0.128187  -1.994202  -0.848917  12.467754
    13  C    0.001801   0.001837   0.008422  -1.505962   0.129826   0.336849
    14  C    0.000590   0.000587  -0.030575  -0.778891   0.126794   0.115788
    15  C   -0.008912  -0.008830   0.279065  -7.875376 -15.052413  -4.285794
    16  C   -0.063429   0.049088  -0.117938  -0.069179  -0.076043   0.050519
    17  C    0.049148  -0.063386   0.309795  -0.069760  -0.075797   0.051003
    18  H    0.000918   0.000927   0.007205  -0.034498  -0.133224  -0.050398
    19  H    0.022230  -0.009820  -0.006852  -0.001919   0.005718   0.002027
    20  H    0.298856   0.008936   0.012205  -0.000603  -0.000428  -0.000032
    21  H    0.008929   0.298858   0.011082  -0.000600  -0.000431  -0.000033
    22  H   -0.009801   0.022196   0.114676  -0.001955   0.005736   0.002032
    23  H   -0.006850  -0.006926  -0.013581   0.130085   0.112174  -0.169904
    24  H    0.000134   0.000134   0.000501   0.060317   0.024155   0.238080
    25  H   -0.000000   0.000000  -0.000001   0.010413   0.000813   0.008596
    26  H    0.000000   0.000000   0.000033  -0.003811  -0.006691  -0.000940
    27  H    0.000064   0.000064   0.000832   0.084882   0.009631   0.013454
    28  H    0.015073  -0.000612   0.008564  -0.026496   0.018930   0.062163
    29  H    0.001671   0.001710  -0.007171  -0.002460  -0.006538  -0.003481
    30  H   -0.006001  -0.000197   0.003788   0.026997  -0.008028  -0.011716
    31  H   -0.000610   0.015060   0.089576  -0.026425   0.018898   0.062105
    32  H   -0.000198  -0.005999  -0.071007   0.026994  -0.007985  -0.011727
    33  H    0.001709   0.001680   0.040101  -0.002477  -0.006542  -0.003476
              13         14         15         16         17         18
     1  C   -0.588460  -0.239837   2.804405   0.064894   0.066030  -0.096385
     2  N    0.049970   0.047908  -0.310410  -0.143880   0.256847   0.033996
     3  C    0.001520  -0.030305  -0.236681   0.546749  -1.008249   0.017097
     4  C    0.001099  -0.030043  -0.237681  -1.007958   0.546642   0.017040
     5  N    0.050075   0.048008  -0.308784   0.256958  -0.143931   0.034045
     6  C    0.008592  -0.030504   0.279525   0.309590  -0.117985   0.007266
     7  C    0.001801   0.000590  -0.008912  -0.063429   0.049148   0.000918
     8  C    0.001837   0.000587  -0.008830   0.049088  -0.063386   0.000927
     9  C    0.008422  -0.030575   0.279065  -0.117938   0.309795   0.007205
    10  C   -1.505962  -0.778891  -7.875376  -0.069179  -0.069760  -0.034498
    11  C    0.129826   0.126794 -15.052413  -0.076043  -0.075797  -0.133224
    12  C    0.336849   0.115788  -4.285794   0.050519   0.051003  -0.050398
    13  C    5.824176   0.621053   0.931521  -0.001423  -0.001467   0.017886
    14  C    0.621053   6.414209  -0.250745  -0.007185  -0.007252   0.043870
    15  C    0.931521  -0.250745  29.373125  -0.012849  -0.013594   0.388662
    16  C   -0.001423  -0.007185  -0.012849   5.291349  -0.043696  -0.005590
    17  C   -0.001467  -0.007252  -0.013594  -0.043696   5.291289  -0.005598
    18  H    0.017886   0.043870   0.388662  -0.005590  -0.005598   0.582121
    19  H   -0.000078   0.000133  -0.001945  -0.000970   0.000160  -0.000001
    20  H   -0.000010   0.000002   0.000024  -0.000100   0.000173  -0.000000
    21  H   -0.000010   0.000002   0.000024   0.000173  -0.000100  -0.000000
    22  H   -0.000078   0.000133  -0.001947   0.000160  -0.000961  -0.000001
    23  H   -0.028384  -0.004863   0.128347   0.002518   0.002532  -0.000051
    24  H   -0.017542  -0.015377   0.035713  -0.000030  -0.000030   0.000002
    25  H    0.289794   0.034950  -0.015794  -0.000086  -0.000086  -0.000000
    26  H    0.014370   0.280817   0.041576  -0.000100  -0.000100   0.000003
    27  H   -0.009545   0.064553   0.184466   0.001827   0.001812   0.003402
    28  H   -0.000688  -0.003392  -0.060221   0.395901   0.002353  -0.000675
    29  H    0.000079   0.000581   0.010173   0.428901  -0.000714   0.000173
    30  H    0.001894   0.002689   0.013581   0.405472  -0.000900   0.002225
    31  H   -0.000681  -0.003372  -0.060107   0.002353   0.395900  -0.000675
    32  H    0.001898   0.002683   0.013567  -0.000900   0.405492   0.002224
    33  H    0.000078   0.000579   0.010157  -0.000714   0.428901   0.000173
              19         20         21         22         23         24
     1  C   -0.000873   0.003666   0.003670  -0.000832   0.192070   0.002716
     2  N   -0.000230   0.000448  -0.001126  -0.006828  -0.007671  -0.000188
     3  C    0.068826  -0.012852   0.009405   0.139438   0.002224  -0.000676
     4  C    0.139500   0.009419  -0.012833   0.068827   0.003054  -0.000670
     5  N   -0.006840  -0.001126   0.000448  -0.000230  -0.007761  -0.000189
     6  C    0.114625   0.011076   0.012195  -0.006873  -0.013839   0.000496
     7  C    0.022230   0.298856   0.008929  -0.009801  -0.006850   0.000134
     8  C   -0.009820   0.008936   0.298858   0.022196  -0.006926   0.000134
     9  C   -0.006852   0.012205   0.011082   0.114676  -0.013581   0.000501
    10  C   -0.001919  -0.000603  -0.000600  -0.001955   0.130085   0.060317
    11  C    0.005718  -0.000428  -0.000431   0.005736   0.112174   0.024155
    12  C    0.002027  -0.000032  -0.000033   0.002032  -0.169904   0.238080
    13  C   -0.000078  -0.000010  -0.000010  -0.000078  -0.028384  -0.017542
    14  C    0.000133   0.000002   0.000002   0.000133  -0.004863  -0.015377
    15  C   -0.001945   0.000024   0.000024  -0.001947   0.128347   0.035713
    16  C   -0.000970  -0.000100   0.000173   0.000160   0.002518  -0.000030
    17  C    0.000160   0.000173  -0.000100  -0.000961   0.002532  -0.000030
    18  H   -0.000001  -0.000000  -0.000000  -0.000001  -0.000051   0.000002
    19  H    0.496605  -0.003127  -0.000115   0.000012  -0.000005  -0.000000
    20  H   -0.003127   0.497703  -0.003544  -0.000115  -0.000001  -0.000000
    21  H   -0.000115  -0.003544   0.497703  -0.003127  -0.000001  -0.000000
    22  H    0.000012  -0.000115  -0.003127   0.496608  -0.000005  -0.000000
    23  H   -0.000005  -0.000001  -0.000001  -0.000005   0.505469  -0.004168
    24  H   -0.000000  -0.000000  -0.000000  -0.000000  -0.004168   0.487455
    25  H    0.000000   0.000000   0.000000   0.000000  -0.000115  -0.003524
    26  H   -0.000000  -0.000000  -0.000000  -0.000000   0.000011  -0.000113
    27  H   -0.000000   0.000000   0.000000  -0.000000  -0.000119   0.000011
    28  H   -0.000195   0.000000   0.000000   0.000000  -0.000216  -0.000018
    29  H   -0.000448   0.000001   0.000000   0.000000  -0.000002   0.000000
    30  H    0.000012  -0.000000  -0.000000  -0.000000  -0.000004   0.000000
    31  H    0.000000   0.000000   0.000000  -0.000195  -0.000216  -0.000018
    32  H   -0.000000  -0.000000  -0.000000   0.000012  -0.000004   0.000000
    33  H    0.000000   0.000000   0.000001  -0.000448  -0.000002   0.000000
              25         26         27         28         29         30
     1  C   -0.000718   0.003109  -0.033937  -0.006236   0.026483  -0.030497
     2  N   -0.000001  -0.000130   0.000625   0.005542  -0.004437  -0.002279
     3  C    0.000108  -0.000227  -0.001476  -0.076776  -0.004266   0.070923
     4  C    0.000106  -0.000226  -0.001508   0.011848  -0.079621   0.011344
     5  N   -0.000001  -0.000130   0.000639  -0.079736  -0.040308  -0.045137
     6  C   -0.000001   0.000033   0.000834   0.089550   0.040100  -0.070994
     7  C   -0.000000   0.000000   0.000064   0.015073   0.001671  -0.006001
     8  C    0.000000   0.000000   0.000064  -0.000612   0.001710  -0.000197
     9  C   -0.000001   0.000033   0.000832   0.008564  -0.007171   0.003788
    10  C    0.010413  -0.003811   0.084882  -0.026496  -0.002460   0.026997
    11  C    0.000813  -0.006691   0.009631   0.018930  -0.006538  -0.008028
    12  C    0.008596  -0.000940   0.013454   0.062163  -0.003481  -0.011716
    13  C    0.289794   0.014370  -0.009545  -0.000688   0.000079   0.001894
    14  C    0.034950   0.280817   0.064553  -0.003392   0.000581   0.002689
    15  C   -0.015794   0.041576   0.184466  -0.060221   0.010173   0.013581
    16  C   -0.000086  -0.000100   0.001827   0.395901   0.428901   0.405472
    17  C   -0.000086  -0.000100   0.001812   0.002353  -0.000714  -0.000900
    18  H   -0.000000   0.000003   0.003402  -0.000675   0.000173   0.002225
    19  H    0.000000  -0.000000  -0.000000  -0.000195  -0.000448   0.000012
    20  H    0.000000  -0.000000   0.000000   0.000000   0.000001  -0.000000
    21  H    0.000000  -0.000000   0.000000   0.000000   0.000000  -0.000000
    22  H    0.000000  -0.000000  -0.000000   0.000000   0.000000  -0.000000
    23  H   -0.000115   0.000011  -0.000119  -0.000216  -0.000002  -0.000004
    24  H   -0.003524  -0.000113   0.000011  -0.000018   0.000000   0.000000
    25  H    0.487728  -0.003579  -0.000112   0.000000  -0.000000   0.000000
    26  H   -0.003579   0.486751  -0.003625  -0.000001   0.000000   0.000000
    27  H   -0.000112  -0.003625   0.496364  -0.000001   0.000001  -0.000074
    28  H    0.000000  -0.000001  -0.000001   0.537526  -0.033856  -0.031045
    29  H   -0.000000   0.000000   0.000001  -0.033856   0.512684  -0.018200
    30  H    0.000000   0.000000  -0.000074  -0.031045  -0.018200   0.507495
    31  H    0.000000  -0.000001  -0.000001  -0.000002   0.000000   0.000000
    32  H    0.000000   0.000000  -0.000074   0.000000   0.000000  -0.000000
    33  H   -0.000000   0.000000   0.000001   0.000000  -0.000000   0.000000
              31         32         33
     1  C   -0.006428  -0.030495   0.026556
     2  N   -0.079736  -0.045154  -0.040308
     3  C    0.011888   0.011360  -0.079642
     4  C   -0.076750   0.070899  -0.004297
     5  N    0.005541  -0.002276  -0.004438
     6  C    0.008550   0.003790  -0.007165
     7  C   -0.000610  -0.000198   0.001709
     8  C    0.015060  -0.005999   0.001680
     9  C    0.089576  -0.071007   0.040101
    10  C   -0.026425   0.026994  -0.002477
    11  C    0.018898  -0.007985  -0.006542
    12  C    0.062105  -0.011727  -0.003476
    13  C   -0.000681   0.001898   0.000078
    14  C   -0.003372   0.002683   0.000579
    15  C   -0.060107   0.013567   0.010157
    16  C    0.002353  -0.000900  -0.000714
    17  C    0.395900   0.405492   0.428901
    18  H   -0.000675   0.002224   0.000173
    19  H    0.000000  -0.000000   0.000000
    20  H    0.000000  -0.000000   0.000000
    21  H    0.000000  -0.000000   0.000001
    22  H   -0.000195   0.000012  -0.000448
    23  H   -0.000216  -0.000004  -0.000002
    24  H   -0.000018   0.000000   0.000000
    25  H    0.000000   0.000000  -0.000000
    26  H   -0.000001   0.000000   0.000000
    27  H   -0.000001  -0.000074   0.000001
    28  H   -0.000002   0.000000   0.000000
    29  H    0.000000   0.000000  -0.000000
    30  H    0.000000  -0.000000   0.000000
    31  H    0.537529  -0.031044  -0.033857
    32  H   -0.031044   0.507495  -0.018200
    33  H   -0.033857  -0.018200   0.512683
          Atomic-Atomic Spin Densities.
               1          2          3          4          5          6
     1  C    0.000000  -0.000000   0.000000  -0.000000   0.000000  -0.000000
     2  N   -0.000000   0.000000  -0.000000   0.000000  -0.000000   0.000000
     3  C    0.000000  -0.000000  -0.000000  -0.000000  -0.000000  -0.000000
     4  C   -0.000000   0.000000  -0.000000   0.000000   0.000000  -0.000000
     5  N    0.000000  -0.000000  -0.000000   0.000000  -0.000000   0.000000
     6  C   -0.000000   0.000000  -0.000000  -0.000000   0.000000   0.000000
     7  C    0.000000  -0.000000   0.000000   0.000000   0.000000   0.000000
     8  C   -0.000000  -0.000000  -0.000000  -0.000000  -0.000000  -0.000000
     9  C    0.000000  -0.000000   0.000000  -0.000000   0.000000   0.000000
    10  C   -0.000000   0.000000   0.000000   0.000000  -0.000000   0.000000
    11  C    0.000000  -0.000000  -0.000000   0.000000  -0.000000   0.000000
    12  C    0.000000   0.000000  -0.000000   0.000000  -0.000000  -0.000000
    13  C   -0.000000   0.000000  -0.000000   0.000000   0.000000   0.000000
    14  C    0.000000  -0.000000  -0.000000   0.000000  -0.000000  -0.000000
    15  C   -0.000000   0.000000   0.000000  -0.000000   0.000000  -0.000000
    16  C    0.000000  -0.000000   0.000000  -0.000000  -0.000000  -0.000000
    17  C   -0.000000   0.000000   0.000000   0.000000   0.000000   0.000000
    18  H   -0.000000   0.000000  -0.000000   0.000000   0.000000   0.000000
    19  H    0.000000   0.000000  -0.000000   0.000000  -0.000000  -0.000000
    20  H    0.000000  -0.000000   0.000000  -0.000000   0.000000   0.000000
    21  H    0.000000   0.000000  -0.000000  -0.000000   0.000000   0.000000
    22  H   -0.000000   0.000000  -0.000000   0.000000  -0.000000  -0.000000
    23  H   -0.000000   0.000000   0.000000  -0.000000   0.000000  -0.000000
    24  H   -0.000000  -0.000000   0.000000  -0.000000   0.000000   0.000000
    25  H    0.000000  -0.000000  -0.000000   0.000000  -0.000000   0.000000
    26  H   -0.000000  -0.000000   0.000000  -0.000000   0.000000  -0.000000
    27  H    0.000000  -0.000000  -0.000000   0.000000  -0.000000   0.000000
    28  H   -0.000000   0.000000  -0.000000   0.000000   0.000000   0.000000
    29  H   -0.000000  -0.000000   0.000000  -0.000000  -0.000000  -0.000000
    30  H    0.000000  -0.000000   0.000000  -0.000000  -0.000000  -0.000000
    31  H    0.000000  -0.000000  -0.000000  -0.000000  -0.000000  -0.000000
    32  H   -0.000000   0.000000  -0.000000   0.000000   0.000000   0.000000
    33  H   -0.000000  -0.000000   0.000000  -0.000000   0.000000   0.000000
               7          8          9         10         11         12
     1  C    0.000000  -0.000000   0.000000  -0.000000   0.000000   0.000000
     2  N   -0.000000  -0.000000  -0.000000   0.000000  -0.000000   0.000000
     3  C    0.000000  -0.000000   0.000000   0.000000  -0.000000  -0.000000
     4  C    0.000000  -0.000000  -0.000000   0.000000   0.000000   0.000000
     5  N    0.000000  -0.000000   0.000000  -0.000000  -0.000000  -0.000000
     6  C    0.000000  -0.000000   0.000000   0.000000   0.000000  -0.000000
     7  C   -0.000000   0.000000  -0.000000  -0.000000   0.000000   0.000000
     8  C    0.000000  -0.000000   0.000000   0.000000  -0.000000  -0.000000
     9  C   -0.000000   0.000000  -0.000000  -0.000000  -0.000000  -0.000000
    10  C   -0.000000   0.000000  -0.000000  -0.000000  -0.000000  -0.000000
    11  C    0.000000  -0.000000  -0.000000  -0.000000  -0.000000   0.000000
    12  C    0.000000  -0.000000  -0.000000  -0.000000   0.000000   0.000000
    13  C    0.000000  -0.000000  -0.000000  -0.000000  -0.000000  -0.000000
    14  C    0.000000  -0.000000  -0.000000   0.000000   0.000000   0.000000
    15  C   -0.000000   0.000000   0.000000   0.000000   0.000000  -0.000000
    16  C    0.000000  -0.000000   0.000000  -0.000000  -0.000000  -0.000000
    17  C   -0.000000   0.000000  -0.000000   0.000000   0.000000   0.000000
    18  H   -0.000000   0.000000  -0.000000   0.000000  -0.000000  -0.000000
    19  H    0.000000  -0.000000   0.000000  -0.000000   0.000000   0.000000
    20  H   -0.000000  -0.000000  -0.000000  -0.000000   0.000000  -0.000000
    21  H    0.000000   0.000000   0.000000  -0.000000   0.000000   0.000000
    22  H    0.000000  -0.000000   0.000000  -0.000000   0.000000   0.000000
    23  H   -0.000000   0.000000   0.000000  -0.000000   0.000000  -0.000000
    24  H   -0.000000   0.000000   0.000000  -0.000000   0.000000  -0.000000
    25  H    0.000000  -0.000000  -0.000000   0.000000  -0.000000   0.000000
    26  H   -0.000000   0.000000   0.000000  -0.000000   0.000000  -0.000000
    27  H    0.000000  -0.000000  -0.000000  -0.000000   0.000000   0.000000
    28  H    0.000000   0.000000  -0.000000  -0.000000   0.000000   0.000000
    29  H   -0.000000  -0.000000   0.000000   0.000000  -0.000000  -0.000000
    30  H   -0.000000   0.000000   0.000000  -0.000000  -0.000000  -0.000000
    31  H    0.000000   0.000000   0.000000  -0.000000  -0.000000   0.000000
    32  H    0.000000  -0.000000  -0.000000   0.000000   0.000000   0.000000
    33  H   -0.000000   0.000000  -0.000000   0.000000  -0.000000  -0.000000
              13         14         15         16         17         18
     1  C   -0.000000   0.000000  -0.000000   0.000000  -0.000000  -0.000000
     2  N    0.000000  -0.000000   0.000000  -0.000000   0.000000   0.000000
     3  C   -0.000000  -0.000000   0.000000   0.000000   0.000000  -0.000000
     4  C    0.000000   0.000000  -0.000000  -0.000000   0.000000   0.000000
     5  N    0.000000  -0.000000   0.000000  -0.000000   0.000000   0.000000
     6  C    0.000000  -0.000000  -0.000000  -0.000000   0.000000   0.000000
     7  C    0.000000   0.000000  -0.000000   0.000000  -0.000000  -0.000000
     8  C   -0.000000  -0.000000   0.000000  -0.000000   0.000000   0.000000
     9  C   -0.000000  -0.000000   0.000000   0.000000  -0.000000  -0.000000
    10  C   -0.000000   0.000000   0.000000  -0.000000   0.000000   0.000000
    11  C   -0.000000   0.000000   0.000000  -0.000000   0.000000  -0.000000
    12  C   -0.000000   0.000000  -0.000000  -0.000000   0.000000  -0.000000
    13  C    0.000000  -0.000000   0.000000  -0.000000  -0.000000   0.000000
    14  C   -0.000000   0.000000  -0.000000   0.000000   0.000000  -0.000000
    15  C    0.000000  -0.000000   0.000000   0.000000  -0.000000   0.000000
    16  C   -0.000000   0.000000   0.000000   0.000000   0.000000  -0.000000
    17  C   -0.000000   0.000000  -0.000000   0.000000  -0.000000   0.000000
    18  H    0.000000  -0.000000   0.000000  -0.000000   0.000000   0.000000
    19  H   -0.000000   0.000000  -0.000000   0.000000  -0.000000  -0.000000
    20  H   -0.000000   0.000000  -0.000000  -0.000000   0.000000   0.000000
    21  H    0.000000   0.000000  -0.000000   0.000000   0.000000  -0.000000
    22  H    0.000000   0.000000  -0.000000   0.000000   0.000000   0.000000
    23  H    0.000000  -0.000000  -0.000000   0.000000   0.000000   0.000000
    24  H    0.000000  -0.000000   0.000000  -0.000000   0.000000   0.000000
    25  H   -0.000000   0.000000  -0.000000   0.000000  -0.000000  -0.000000
    26  H    0.000000  -0.000000   0.000000  -0.000000  -0.000000   0.000000
    27  H   -0.000000   0.000000  -0.000000   0.000000   0.000000  -0.000000
    28  H   -0.000000   0.000000  -0.000000   0.000000  -0.000000  -0.000000
    29  H    0.000000  -0.000000   0.000000  -0.000000   0.000000   0.000000
    30  H    0.000000   0.000000   0.000000  -0.000000   0.000000   0.000000
[...]
 0.02016009,-0.02822516,0.00052969,0.00074779,0.00071654,0.00002883,-0.
 00049579,0.00017741,0.00080339,0.00043914,0.00060682,-0.00098305,0.000
 12514,-0.00062477,-0.00075916,-0.00052081,0.00031937,-0.00016966,-0.00
 034464,0.00009640,-0.00015584,0.00001666,0.00010204,0.00007514,0.00001
 390,0.00008850,0.00001632,-0.00003126,-0.00010927,-0.00008079,0.000119
 01,0.00024543,0.01096827,-0.05188683,-0.02627991,0.00011192,0.00017108
 ,0.00011315,-0.00044827,-0.00014556,-0.00004547,0.00020188,-0.00006552
 ,-0.00017292,0.00007108,0.00000284,0.00004414,0.00005004,-0.00001342,0
 .00000620,0.00002609,-0.00005317,-0.00004804,0.00001033,-0.00001591,-0
 .00003621,-0.00001460,0.00001474,0.00000463,0.00000446,0.00000174,0.00
 000248,-0.00001687,-0.00002319,0.00001199,0.00002760,0.00000888,-0.000
 01868,-0.02070706,0.06385477,0.00148909,0.00101137,0.00035693,-0.00045
 156,0.00001831,-0.00022185,0.00091556,-0.00059195,0.00047725,-0.002600
 49,0.00085050,0.00011209,0.00341479,-0.00967185,0.00435160,0.00136792,
 -0.00044302,0.00009371,-0.00011768,0.00010956,-0.00045680,0.00051239,-
 0.00026468,0.00038769,-0.00021262,0.00018450,-0.00026210,-0.00024977,0
 .00035537,-0.00017018,-0.00003360,0.00039115,0.00000044,-0.00004229,0.
 00001828,0.00001818,0.00003615,-0.00003144,0.00005395,0.00002584,-0.00
 002091,-0.00012523,-0.00036064,-0.00010219,0.00005788,0.08892901,-0.02
 668030,-0.25629507,0.00013942,0.00019092,-0.00007198,-0.00026905,0.000
 05754,-0.00025072,-0.00017490,-0.00001991,0.00029682,0.00005778,0.0000
 1168,0.00004738,-0.00000498,-0.00001998,0.00005971,-0.00000207,-0.0000
 5703,0.00002580,0.00010434,0.00001049,0.00004465,-0.00000083,-0.000042
 60,0.00001268,0.00000123,0.00000142,0.00000201,-0.00001024,0.00004765,
 0.00000479,0.00001497,-0.00001057,-0.00000020,-0.10287518,0.03666271,0
 .27294379,-0.00066418,0.00210739,-0.00057262,0.00019598,0.00061230,-0.
 00007242,0.00022694,0.00019855,0.00044495,0.00058187,-0.00047226,-0.00
 065068,0.01402627,0.01302474,-0.00173050,-0.00059791,0.00000775,-0.000
 48706,-0.00041871,0.00032353,0.00039568,-0.00003093,-0.00018084,-0.000
 01171,0.00000458,-0.00000632,0.00013233,-0.00016397,-0.00002206,0.0001
 8311,-0.00001756,-0.00011873,-0.00012413,0.00002594,-0.00002352,-0.000
 02472,-0.00003471,0.00001617,-0.00000609,0.00000411,-0.00002254,0.0000
 3829,0.00018617,-0.00007669,0.00003660,-0.20201585,-0.13574003,0.03136
 719,-0.00015899,0.00009064,0.00002660,0.00003500,-0.00005528,0.0001580
 7,-0.00007153,0.00047900,-0.00081516,0.00001933,-0.00000377,0.00000041
 ,0.00006054,0.00000734,-0.00008125,0.00002751,-0.00001302,-0.00000376,
 -0.00002334,0.00003062,-0.00000569,-0.00000191,0.00000145,0.00000624,-
 0.00000488,0.00000383,0.00000279,-0.00000440,0.00000393,-0.00000077,0.
 00000310,0.00002056,0.00000092,-0.00816300,-0.00716477,0.00046713,0.21
 053767,0.00417000,-0.00162737,0.00296616,-0.00081175,-0.00168742,0.000
 08457,-0.00018874,-0.00083939,-0.00039486,-0.00214288,0.00121479,-0.00
 108399,-0.02194703,-0.03103880,-0.00017542,0.00051266,-0.00007616,0.00
 039440,0.00011294,-0.00002592,0.00011004,0.00023945,0.00015132,0.00017
 799,-0.00016419,0.00006504,-0.00020932,0.00037675,-0.00013342,-0.00048
 987,-0.00006868,0.00011412,0.00003640,-0.00001180,0.00001793,0.0000423
 5,-0.00003202,-0.00001354,0.00003393,-0.00005338,0.00003016,-0.0000395
 1,-0.00014866,0.00012398,0.00017575,-0.12777627,-0.16153470,0.02713028
 ,0.00067972,-0.00002044,-0.00000293,-0.00004952,0.00012692,-0.00017394
 ,0.00046681,0.00010255,0.00033534,0.00002372,0.00000009,0.00001498,0.0
 0002756,0.00001432,0.00000492,-0.00001898,-0.00002381,0.00002249,0.000
 01827,-0.00001242,-0.00003449,-0.00001582,-0.00000164,0.00002241,-0.00
 000923,-0.00000337,0.00000589,-0.00003113,-0.00000416,0.00001118,0.000
 01145,-0.00002035,-0.00001703,0.00285652,0.00403457,-0.00002229,0.1401
 7333,0.18707252,0.00062864,-0.00075890,0.00016119,-0.00025123,-0.00037
 516,-0.00004420,0.00002182,-0.00001822,-0.00001468,0.00008989,0.000500
 62,-0.00003620,-0.00438623,-0.00359012,0.00089801,-0.00014688,0.000529
 76,-0.00052415,-0.00009921,-0.00003607,0.00014423,0.00003589,-0.000021
 18,0.00003629,-0.00000455,-0.00002246,0.00004383,-0.00002961,0.0001917
 2,-0.00007039,0.00001375,0.00009576,0.00001945,-0.00007707,0.00003635,
 0.00003985,0.00003394,-0.00001749,0.00004378,0.00002976,-0.00000949,-0
 .00005696,-0.00015542,-0.00004613,0.00002316,0.03246195,0.02827585,-0.
 05521327,0.00011980,0.00000854,0.00002977,0.00008510,0.00000296,0.0000
 7942,-0.00043374,0.00005731,-0.00051025,0.00002081,-0.00000445,0.00001
 674,0.00002749,-0.00001291,-0.00002232,0.00000448,-0.00001214,0.000003
 25,0.00003315,-0.00001423,0.00001643,0.00000028,-0.00001022,-0.0000006
 9,0.00000321,-0.00000099,0.00000117,-0.00000096,0.00002018,0.00000215,
 0.00001413,-0.00000713,0.00001189,0.02180539,0.01885515,-0.00336942,-0
 .03390344,-0.02752438,0.05347335,0.00012699,-0.00101996,0.00057895,0.0
 0005122,0.00000286,0.00019756,-0.00067293,0.00017296,-0.00068970,0.001
 94434,0.00181570,0.00094321,-0.01164899,0.00315677,-0.00867109,0.00005
 539,0.00004299,0.00005842,0.00001138,0.00003089,-0.00001124,-0.0001847
 2,0.00000122,-0.00014439,0.00021606,0.00024861,0.00016088,0.00015986,-
 0.00011505,0.00008779,0.00010103,0.00005766,-0.00003815,-0.00013634,0.
 00000528,0.00002388,0.00010120,0.00000376,0.00008243,0.00007433,-0.000
 02423,-0.00011575,-0.00010144,-0.00004470,-0.00002480,-0.17971044,0.02
 434256,-0.13411140,-0.00004729,-0.00009769,0.00004348,0.00016008,0.000
 65314,-0.00006500,0.00007693,0.00000069,0.00010942,-0.00004339,0.00000
 626,-0.00003644,-0.00002831,0.00001472,-0.00000980,-0.00006023,0.00005
 820,-0.00003373,-0.00000743,-0.00003039,0.00001840,0.00000484,0.000012
 41,-0.00000936,0.00000388,0.00000069,-0.00000037,0.00001082,-0.0000085
 0,-0.00000552,0.00000577,0.00003654,0.00001277,0.01035353,-0.00222185,
 0.00997842,-0.01357944,0.00393195,-0.01590951,0.19273715,0.00066732,0.
 00036716,0.00150909,-0.00010559,0.00035240,-0.00020626,0.00198490,-0.0
 0048726,0.00108386,-0.00154252,-0.00541440,-0.00156318,0.03042281,-0.0
 0941146,0.02489106,-0.00027402,-0.00015861,-0.00009326,0.00020278,0.00
 004324,0.00005960,0.00017936,0.00015089,0.00010826,-0.00042729,-0.0005
 3834,-0.00036107,-0.00017986,-0.00052350,0.00008509,0.00004160,0.00004
 819,0.00000134,-0.00002344,0.00000845,-0.00001891,0.00000705,0.0000004
 4,0.00001189,-0.00000262,0.00001025,-0.00002655,-0.00004807,-0.0000054
 9,0.00004297,0.01707640,-0.05263115,0.01701009,-0.00008419,0.00011665,
 -0.00004775,-0.00023747,0.00033472,-0.00041345,-0.00003452,0.00032152,
 0.00012003,0.00005371,-0.00001642,0.00004397,0.00001486,0.00000438,0.0
 0003245,0.00009658,-0.00010280,0.00011336,0.00001014,-0.00000258,-0.00
 003199,0.00000295,-0.00000073,-0.00000151,-0.00000073,0.00000033,-0.00
 000207,-0.00000136,-0.00000247,0.00000104,0.00000530,0.00000508,-0.000
 01193,-0.00343093,0.00089279,-0.00184417,-0.01325511,0.00425064,-0.016
 03093,-0.03109927,0.06241872,-0.00013222,-0.00016568,0.00120792,0.0000
 5166,0.00012048,0.00008064,0.00007081,-0.00004194,0.00020988,0.0010140
 7,-0.00102244,0.00097264,0.00402159,0.00054780,0.00437459,0.00013729,-
 0.00019695,-0.00002084,-0.00003013,0.00005190,0.00000275,-0.00006086,-
 0.00004892,-0.00003055,0.00009055,-0.00002184,0.00001866,-0.00002276,-
 0.00004312,-0.00017589,0.00003251,-0.00008189,-0.00015317,-0.00005780,
 0.00002077,0.00000380,-0.00000120,0.00000474,0.00005889,0.00005843,-0.
 00001698,-0.00004457,0.00002246,-0.00008161,0.00007038,-0.13798432,0.0
 2353264,-0.19014273,-0.00001020,-0.00003496,-0.00000649,0.00006296,0.0
 0065039,-0.00031257,0.00000817,0.00006137,-0.00003632,-0.00000915,0.00
 000087,-0.00000119,-0.00000416,0.00000320,-0.00000187,0.00002520,-0.00
 000476,-0.00001698,0.00001442,-0.00001710,0.00003529,0.00000018,-0.000
 00313,0.00000633,0.00000027,0.00000212,0.00000328,-0.00000217,0.000004
 38,-0.00000002,0.00000695,0.00003607,0.00001364,-0.02015225,0.00270229
 ,-0.01821655,0.00524090,-0.00148912,0.00479173,0.14760254,-0.02448768,
 0.19731416,-0.00078177,0.00096660,-0.00038828,-0.00827953,-0.01233908,
 0.00872562,0.00309423,0.00145633,0.00377715,-0.00020149,-0.00135165,-0
 .00056203,0.00005254,0.00006528,0.00004092,0.00082271,0.00002236,0.000
 48881,-0.00054098,0.00056836,-0.00036622,-0.00023710,-0.00054425,-0.00
 027357,0.00010868,0.00072344,-0.00013752,0.00009609,0.00016485,0.00003
 814,0.00002418,0.00027071,0.00005810,0.00000489,0.00003295,-0.00002551
 ,0.00003289,-0.00002235,-0.00004217,-0.00001055,-0.00000439,0.00006120
 ,0.00020081,-0.00009668,-0.00011403,-0.00011001,0.00008986,0.00002542,
 -0.09043484,-0.01072964,0.08989452,0.00020503,-0.00038019,0.00004681,-
 0.00001007,-0.00002831,0.00001871,-0.00002898,0.00000415,-0.00000942,-
 0.00003866,-0.00000262,-0.00001862,-0.00003366,0.00011878,0.00010672,-
 0.00005230,-0.00004568,-0.00001921,0.00000919,-0.00002468,-0.00002009,
 0.00000431,-0.00000149,-0.00000444,0.00002173,0.00002406,-0.00000418,-
 0.00000295,-0.00002195,0.00001144,0.00001485,-0.00001961,-0.00002789,0
 .00000132,-0.00004119,-0.00001249,0.00000872,-0.00000964,-0.00000010,0
 .09386547,-0.00377777,0.00236740,0.00153365,-0.02147588,-0.02010300,0.
 02824960,0.00517428,0.00305421,0.00479738,-0.00021878,-0.00177142,-0.0
 0091643,0.00046009,-0.00017682,-0.00019733,0.00098250,0.00012521,0.000
 62414,-0.00080236,0.00043886,-0.00060674,-0.00002909,-0.00049588,-0.00
 017721,-0.00052786,0.00074739,-0.00071719,0.00075835,-0.00052174,-0.00
 031889,0.00016984,-0.00034613,-0.00009636,0.00015601,0.00001653,-0.000
 10212,-0.00007522,0.00001388,-0.00008856,-0.00001642,-0.00003113,0.000
 10924,0.00008052,0.00011899,-0.00024541,-0.00011164,0.00017072,-0.0001
 1343,-0.01085148,-0.05181673,0.02601099,0.00044783,-0.00014558,0.00004
 533,-0.00002611,-0.00005303,0.00004813,-0.00005003,-0.00001338,-0.0000
 0611,-0.00007100,0.00000281,-0.00004408,-0.00020210,-0.00006528,0.0001
 7328,-0.00001034,-0.00001596,0.00003621,0.00001460,0.00001479,-0.00000
 460,-0.00000447,0.00000173,-0.00000248,0.00001682,-0.00002329,-0.00001
 196,-0.00002758,0.00000892,0.00001865,0.00001953,-0.00009416,-0.000020
 95,-0.00000222,-0.00004910,-0.00001970,0.00002296,-0.00001391,0.000013
 93,0.02057800,0.06375441,0.00149319,-0.00101459,0.00035625,0.00344387,
 0.00969830,0.00430834,-0.00260707,-0.00085281,0.00010734,0.00091594,0.
 00059407,0.00047762,-0.00045208,-0.00001813,-0.00022157,-0.00021374,-0
 .00018484,-0.00026252,0.00051338,0.00026449,0.00038805,-0.00011771,-0.
 00010956,-0.00045654,0.00136882,0.00044175,0.00009413,-0.00025088,-0.0
 0035502,-0.00016919,-0.00003401,-0.00039123,0.00000069,-0.00004259,-0.
 00001831,0.00001832,0.00003630,0.00003146,0.00005412,0.00002597,0.0000
 2085,-0.00012547,-0.00036077,0.00010247,0.00005809,0.00013948,-0.00019
 124,-0.00007163,0.08894861,0.02641232,-0.25635787,-0.00026959,-0.00005
 753,-0.00025070,-0.00000201,0.00005712,0.00002568,-0.00000492,0.000020
 07,0.00005969,0.00005785,-0.00001165,0.00004745,-0.00017466,0.00002038
 ,0.00029662,0.00010439,-0.00001060,0.00004467,-0.00000083,0.00004261,0
 .00001265,0.00000124,-0.00000142,0.00000201,-0.00001029,-0.00004764,0.
 00000485,0.00001501,0.00001054,-0.00000023,-0.00002791,0.00002115,0.00
 007368,-0.00000274,0.00005467,0.00002296,-0.00001749,0.00002304,-0.000
 00396,-0.10291011,-0.03638295,0.27303028,0.00012779,0.00102050,0.00057
 765,-0.01166380,-0.00316543,-0.00867834,0.00194423,-0.00181774,0.00094
 608,-0.00067381,-0.00017365,-0.00068997,0.00005124,-0.00000252,0.00019
 764,0.00021613,-0.00024875,0.00016131,-0.00018479,-0.00000125,-0.00014
 444,0.00001128,-0.00003087,-0.00001120,0.00005550,-0.00004299,0.000058
 48,0.00016007,0.00011499,0.00008766,0.00010108,-0.00005786,-0.00003811
 ,-0.00013638,-0.00000519,0.00002388,0.00010120,-0.00000375,0.00008245,
 0.00007437,0.00002408,-0.00011579,-0.00010140,0.00004468,-0.00002490,-
 0.00004721,0.00009781,0.00004338,-0.17973552,-0.02443826,-0.13409173,0
 .00015992,-0.00065314,-0.00006412,-0.00006030,-0.00005826,-0.00003370,
 -0.00002832,-0.00001472,-0.00000980,-0.00004342,-0.00000629,-0.0000364
 5,0.00007697,-0.00000048,0.00010936,-0.00000743,0.00003046,0.00001839,
 0.00000483,-0.00001242,-0.00000935,0.00000388,-0.00000068,-0.00000037,
 0.00001083,0.00000848,-0.00000553,0.00000574,-0.00003653,0.00001279,0.
 00000872,-0.00002299,-0.00001747,-0.00000140,-0.00002636,-0.00000849,0
 .00001879,-0.00001649,0.00000412,0.01035581,0.00222884,0.00997615,0.19
 277104,-0.00066826,0.00036502,-0.00150979,-0.03041758,-0.00942536,-0.0
 2487122,0.00154032,-0.00541138,0.00156999,-0.00198474,-0.00048746,-0.0
 0108279,0.00010583,0.00035250,0.00020590,0.00042705,-0.00053798,0.0003
 6163,-0.00017926,0.00015089,-0.00010840,-0.00020279,0.00004323,-0.0000
 5963,0.00027409,-0.00015842,0.00009343,0.00017950,-0.00052401,-0.00008
 495,-0.00004163,0.00004837,-0.00000157,0.00002344,0.00000842,0.0000189
 0,-0.00000710,0.00000043,-0.00001185,0.00000267,0.00001028,0.00002654,
 0.00004815,-0.00000541,-0.00004284,0.00008427,0.00011664,0.00004759,-0
 .01717581,-0.05265907,-0.01710456,0.00023762,0.00033471,0.00041276,-0.
 00009657,-0.00010286,-0.00011325,-0.00001484,0.00000436,-0.00003245,-0
 .00005371,-0.00001644,-0.00004393,0.00003461,0.00032132,-0.00012048,-0
 .00001015,-0.00000251,0.00003205,-0.00000295,-0.00000072,0.00000152,0.
 00000072,0.00000033,0.00000208,0.00000134,-0.00000248,-0.00000104,-0.0
 0000528,0.00000506,0.00001195,0.00000962,-0.00001394,-0.00002302,-0.00
 000734,0.00001784,-0.00000121,0.00001647,-0.00003456,-0.00000233,0.003
 40432,0.00088925,0.00181843,0.03120877,0.06244774,-0.00013085,0.000166
 17,0.00121009,0.00405565,-0.00053393,0.00440283,0.00101266,0.00102914,
 0.00096961,0.00007306,0.00004273,0.00021108,0.00005150,-0.00012080,0.0
 0008057,0.00009007,0.00002243,0.00001823,-0.00006063,0.00004873,-0.000
 03048,-0.00002991,-0.00005193,0.00000288,0.00013708,0.00019706,-0.0000
 2117,-0.00002296,0.00004338,-0.00017585,0.00003250,0.00008178,-0.00015
 324,-0.00005777,-0.00002073,0.00000379,-0.00000124,-0.00000468,0.00005
 886,0.00005841,0.00001687,-0.00004454,0.00002252,0.00008165,0.00007033
 ,-0.00001027,0.00003482,-0.00000658,-0.13797551,-0.02362598,-0.1900901
 8,0.00006239,-0.00065125,-0.00031215,0.00002531,0.00000485,-0.00001685
 ,-0.00000414,-0.00000320,-0.00000183,-0.00000909,-0.00000085,-0.000001
 14,0.00000810,-0.00006179,-0.00003612,0.00001445,0.00001713,0.00003527
 ,0.00000019,0.00000314,0.00000633,0.00000027,-0.00000212,0.00000328,-0
 .00000218,-0.00000437,-0.00000001,0.00000694,-0.00003606,0.00001365,-0
 .00000011,-0.00001392,-0.00000392,0.00000225,-0.00000752,-0.00000477,0
 .00000410,0.00000237,0.00000387,-0.02015793,-0.00271502,-0.01821515,0.
 14757799,0.02457437,0.19725085,-0.00066683,-0.00210846,-0.00057155,0.0
 1403020,-0.01304637,-0.00171609,0.00058299,0.00047169,-0.00065073,0.00
 022692,-0.00019853,0.00044536,0.00019604,-0.00061317,-0.00007179,0.000
 00467,0.00000650,0.00013244,-0.00003095,0.00018094,-0.00001199,-0.0004
 1893,-0.00032292,0.00039599,-0.00059846,-0.00000802,-0.00048698,-0.000
 16414,0.00002224,0.00018333,-0.00001754,0.00011875,-0.00012419,0.00002
 607,0.00002352,-0.00002479,-0.00003477,-0.00001617,-0.00000617,0.00000
 408,0.00002257,0.00003838,0.00018641,0.00007662,0.00003643,-0.00015931
 ,-0.00009056,0.00002671,-0.20189853,0.13579130,0.03120561,0.00003504,0
 .00005552,0.00015810,0.00002753,0.00001299,-0.00000379,0.00006053,-0.0
 0000745,-0.00008124,0.00001932,0.00000376,0.00000040,-0.00007206,-0.00
 047977,-0.00081458,-0.00002341,-0.00003064,-0.00000566,-0.00000190,-0.
 00000145,0.00000623,-0.00000488,-0.00000383,0.00000279,-0.00000439,-0.
 00000392,-0.00000077,0.00000308,-0.00002056,0.00000094,0.00000134,0.00
 000220,-0.00000276,0.00001638,-0.00006350,-0.00001067,-0.00000139,0.00
 000735,0.00000225,-0.00816056,0.00717020,0.00045919,-0.01357564,0.0132
 6924,0.00522717,0.21041309,-0.00416961,-0.00162708,-0.00296410,0.02192
 201,-0.03103876,0.00021170,0.00214336,0.00121433,0.00108300,0.00018823
 ,-0.00083898,0.00039556,0.00081064,-0.00168712,-0.00008268,0.00016424,
 0.00006523,0.00020926,-0.00023936,0.00015116,-0.00017814,-0.00011287,-
 0.00002584,-0.00010999,-0.00051271,-0.00007696,-0.00039476,-0.00037675
 ,-0.00013296,0.00048982,0.00006870,0.00011395,-0.00003636,0.00001178,0
 .00001783,-0.00004233,0.00003202,-0.00001355,-0.00003391,0.00005340,0.
 00003015,0.00003947,0.00014857,0.00012373,-0.00017590,-0.00067952,-0.0
 0002011,0.00000299,0.12782906,-0.16171130,-0.02702767,0.00004966,0.000
 12707,0.00017382,0.00001897,-0.00002384,-0.00002246,-0.00002755,0.0000
 1434,-0.00000493,-0.00002371,0.00000008,-0.00001496,-0.00046725,0.0001
 0240,-0.00033546,-0.00001826,-0.00001232,0.00003454,0.00001582,-0.0000
 0166,-0.00002241,0.00000923,-0.00000337,-0.00000588,0.00003113,-0.0000
 0422,-0.00001118,-0.00001145,-0.00002031,0.00001706,0.00004116,-0.0000
 4916,-0.00005459,0.00006339,-0.00022477,-0.00004066,0.00002637,0.00001
 783,0.00000750,-0.00282665,0.00401144,0.00001381,-0.00394197,0.0042662
 0,0.00148753,-0.14022010,0.18725658,0.00063380,0.00076066,0.00016354,-
 0.00440960,0.00362826,0.00089401,0.00008725,-0.00050208,-0.00003690,0.
 00002157,0.00001912,-0.00001514,-0.00025197,0.00037713,-0.00004454,-0.
 00000469,0.00002243,0.00004358,0.00003614,0.00002105,0.00003646,-0.000
 09905,0.00003626,0.00014430,-0.00014671,-0.00053019,-0.00052305,-0.000
 02931,-0.00019178,-0.00007069,0.00001369,-0.00009595,0.00001946,-0.000
 07721,-0.00003633,0.00003997,0.00003396,0.00001754,0.00004388,0.000029
 77,0.00000940,-0.00005708,-0.00015560,0.00004615,0.00002333,0.00012057
 ,-0.00000851,0.00002977,0.03230950,-0.02817397,-0.05515197,0.00008504,
 -0.00000303,0.00007924,0.00000447,0.00001216,0.00000326,0.00002752,0.0
 0001285,-0.00002233,0.00002084,0.00000446,0.00001675,-0.00043318,-0.00
 005751,-0.00050932,0.00003321,0.00001426,0.00001642,0.00000027,0.00001
 023,-0.00000068,0.00000321,0.00000099,0.00000118,-0.00000100,-0.000020
 18,0.00000218,0.00001414,0.00000715,0.00001186,-0.00001252,0.00001978,
 0.00002300,-0.00001073,0.00004093,0.00000866,-0.00000852,0.00000119,-0
 .00000478,0.02180027,-0.01887300,-0.00334866,-0.01589756,0.01603818,0.
 00477246,-0.03373756,0.02739233,0.05341185\\0.00000477,0.00000095,0.00
 001065,-0.00000477,-0.00001747,-0.00000503,-0.00000635,0.00001102,0.00
 000061,-0.00000893,-0.00001126,0.00000155,-0.00000709,0.00001711,-0.00
 000487,0.00001358,-0.00000559,0.00000829,-0.00000819,0.00001753,-0.000
 00632,-0.00000733,-0.00001787,-0.00000749,0.00001386,0.00000589,0.0000
 0813,0.00001895,0.00000098,0.00000792,-0.00001024,0.00000099,-0.000007
 63,-0.00000024,0.00000011,-0.00000256,-0.00000270,-0.00000040,0.000000
 20,0.00000295,-0.00000012,-0.00000359,-0.00000288,0.00000062,0.0000001
 5,0.00000438,-0.00001588,0.00000252,0.00000423,0.00001427,0.00000304,0
 .00000002,0.00000044,0.00000383,-0.00000013,0.00000066,0.00000151,-0.0
 0000175,0.00000058,0.00000119,-0.00000180,-0.00000058,0.00000134,-0.00
 000012,-0.00000079,0.00000175,0.00000176,-0.00000004,0.00000135,0.0000
 0147,0.00000001,-0.00000166,0.00000005,0.00000010,-0.00000139,0.000000
 90,0.00000001,-0.00000303,-0.00000221,-0.00000011,-0.00000140,-0.00000
 245,0.00000019,-0.00000122,-0.00000019,0.00000535,0.00000094,0.0000015
 8,0.00000450,-0.00000402,-0.00000241,-0.00000098,-0.00000165,0.0000015
 4,-0.00000512,-0.00000410,-0.00000026,-0.00000510,0.00000103\\\@
 The archive entry for this job was punched.


 CHILDREN YOU ARE VERY LITTLE,
 AND YOUR BONES ARE VERY BRITTLE;
 IF YOU WOULD GROW GREAT AND STATELY
 YOU MUST TRY TO WALK SEDATELY.
 YOU MUST STILL BE BRIGHT AND QUIET,
 AND CONTENT WITH SIMPLE DIET;
 AND REMAIN, THROUGH ALL BEWILD'RING
 INNOCENT AND HONEST CHILDREN.
     -- A CHILD'S GARDEN OF VERSE,
        ROBERT LOUIS STEVENSON
 Job cpu time:       0 days  8 hours 21 minutes 34.2 seconds.
 Elapsed time:       0 days  0 hours 26 minutes  0.1 seconds.
 File lengths (MBytes):  RWF=   1139 Int=      0 D2E=      0 Chk=     29 Scr=      1
 Normal termination of Gaussian 16 at Mon Nov  7 21:42:57 2022.
