 Entering Gaussian System, Link 0=g16
 Input=BIH-conformers-8.gau
 Output=BIH-conformers-8.log
 Initial command:
 /apps/gaussian/g16c01/g16/l1.exe "/jobfs/62953834.gadi-pbs/Gau-1875652.inp" -scrdir="/jobfs/62953834.gadi-pbs/"
 Default is to use a total of  20 processors:
                               20 via shared-memory
                                1 via Linda
 Entering Link 1 = /apps/gaussian/g16c01/g16/l1.exe PID=   1875653.
  
 Copyright (c) 1988-2019, Gaussian, Inc.  All Rights Reserved.
  
 This is part of the Gaussian(R) 16 program.  It is based on
 the Gaussian(R) 09 system (copyright 2009, Gaussian, Inc.),
 the Gaussian(R) 03 system (copyright 2003, Gaussian, Inc.),
 the Gaussian(R) 98 system (copyright 1998, Gaussian, Inc.),
 the Gaussian(R) 94 system (copyright 1995, Gaussian, Inc.),
 the Gaussian 92(TM) system (copyright 1992, Gaussian, Inc.),
 the Gaussian 90(TM) system (copyright 1990, Gaussian, Inc.),
 the Gaussian 88(TM) system (copyright 1988, Gaussian, Inc.),
 the Gaussian 86(TM) system (copyright 1986, Carnegie Mellon
 University), and the Gaussian 82(TM) system (copyright 1983,
 Carnegie Mellon University). Gaussian is a federally registered
 trademark of Gaussian, Inc.
  
 This software contains proprietary and confidential information,
 including trade secrets, belonging to Gaussian, Inc.
  
 This software is provided under written license and may be
 used, copied, transmitted, or stored only in accord with that
 written license.
  
 The following legend is applicable only to US Government
 contracts under FAR:
  
                    RESTRICTED RIGHTS LEGEND
  
 Use, reproduction and disclosure by the US Government is
 subject to restrictions as set forth in subparagraphs (a)
 and (c) of the Commercial Computer Software - Restricted
 Rights clause in FAR 52.227-19.
  
 Gaussian, Inc.
 340 Quinnipiac St., Bldg. 40, Wallingford CT 06492
  
  
 ---------------------------------------------------------------
 Warning -- This program may not be used in any manner that
 competes with the business of Gaussian, Inc. or will provide
 assistance to any competitor of Gaussian, Inc.  The licensee
 of this program is prohibited from giving any competitor of
 Gaussian, Inc. access to this program.  By using this program,
 the user acknowledges that Gaussian, Inc. is engaged in the
 business of creating and licensing software in the field of
 computational chemistry and represents and warrants to the
 licensee that it is not a competitor of Gaussian, Inc. and that
 it will not use this program in any manner prohibited above.
 ---------------------------------------------------------------
  

 Cite this work as:
 Gaussian 16, Revision C.01,
 M. J. Frisch, G. W. Trucks, H. B. Schlegel, G. E. Scuseria, 
 M. A. Robb, J. R. Cheeseman, G. Scalmani, V. Barone, 
 G. A. Petersson, H. Nakatsuji, X. Li, M. Caricato, A. V. Marenich, 
 J. Bloino, B. G. Janesko, R. Gomperts, B. Mennucci, H. P. Hratchian, 
 J. V. Ortiz, A. F. Izmaylov, J. L. Sonnenberg, D. Williams-Young, 
 F. Ding, F. Lipparini, F. Egidi, J. Goings, B. Peng, A. Petrone, 
 T. Henderson, D. Ranasinghe, V. G. Zakrzewski, J. Gao, N. Rega, 
 G. Zheng, W. Liang, M. Hada, M. Ehara, K. Toyota, R. Fukuda, 
 J. Hasegawa, M. Ishida, T. Nakajima, Y. Honda, O. Kitao, H. Nakai, 
 T. Vreven, K. Throssell, J. A. Montgomery, Jr., J. E. Peralta, 
 F. Ogliaro, M. J. Bearpark, J. J. Heyd, E. N. Brothers, K. N. Kudin, 
 V. N. Staroverov, T. A. Keith, R. Kobayashi, J. Normand, 
 K. Raghavachari, A. P. Rendell, J. C. Burant, S. S. Iyengar, 
 J. Tomasi, M. Cossi, J. M. Millam, M. Klene, C. Adamo, R. Cammi, 
 J. W. Ochterski, R. L. Martin, K. Morokuma, O. Farkas, 
 J. B. Foresman, and D. J. Fox, Gaussian, Inc., Wallingford CT, 2019.
 
 ******************************************
 Gaussian 16:  ES64L-G16RevC.01  3-Jul-2019
                 7-Nov-2022 
 ******************************************
 %chk=BIH-conformers-8.chk
 Default route: Maxdisk=0MB
 ----------------------------------------------------------------------
 # opt(maxcycles=1000) freq=Noraman scf(maxcycle=500) uwb97xd/6-31+G(d,
 p) scrf=(smd,solvent=acetonitrile)
 ----------------------------------------------------------------------
 1/6=1000,18=20,19=15,26=3,38=1/1,3;
 2/9=110,12=2,17=6,18=5,40=1/2;
 3/5=1,6=6,7=111,11=2,25=1,30=1,70=32201,71=1,72=2,74=-58,116=2/1,2,3;
 4//1;
 5/5=2,7=500,38=5,53=2/2;
 6/7=2,8=2,9=2,10=2,28=1/1;
 7//1,2,3,16;
 1/6=1000,18=20,19=15,26=3/3(2);
 2/9=110/2;
 99//99;
 2/9=110/2;
 3/5=1,6=6,7=111,11=2,25=1,30=1,70=32205,71=1,72=2,74=-58,116=2/1,2,3;
 4/5=5,16=3,69=1/1;
 5/5=2,7=500,38=5,53=2/2;
 7//1,2,3,16;
 1/6=1000,18=20,19=15,26=3/3(-5);
 2/9=110/2;
 6/7=2,8=2,9=2,10=2,19=2,28=1/1;
 99/9=1/99;
 ----------
 OPT + Freq
 ----------
 Symbolic Z-matrix:
 Charge =  0 Multiplicity = 1
 C                     0.31114  -0.15897   0.47707 
 N                    -0.42804   1.13426   0.45733 
 C                    -1.779     0.64705   0.4328 
 C                    -1.81244  -0.67832  -0.02691 
 N                    -0.48723  -1.14862  -0.30127 
 C                    -3.01925  -1.3457   -0.20262 
 C                    -4.20214  -0.65975   0.10701 
 C                    -4.16817   0.66003   0.57173 
 C                    -2.9492    1.33261   0.73591 
 C                     1.80322  -0.11582   0.23492 
 C                     2.4911   -1.27686  -0.14418 
 C                     3.88337  -1.28025  -0.24728 
 C                     4.61422  -0.12778   0.04832 
 C                     3.94052   1.0197    0.47118 
 C                     2.54787   1.0216    0.57343 
 C                    -0.25926  -1.27936  -1.75503 
 C                    -0.2014    2.05256  -0.68093 
 H                     0.18753  -0.50029   1.51493 
 H                    -3.04415  -2.36923  -0.56925 
 H                    -5.15872  -1.16311  -0.01194 
 H                    -5.09808   1.1705    0.81083 
 H                    -2.9179    2.36334   1.08138 
 H                     1.94233  -2.19369  -0.33794 
 H                     4.39613  -2.19047  -0.54971 
 H                     5.69865  -0.12947  -0.03271 
 H                     4.49835   1.91622   0.73177 
 H                     2.04399   1.91081   0.94012 
 H                     0.76338  -1.597    -1.95684 
 H                    -0.45541  -0.35225  -2.30887 
 H                    -0.93468  -2.05337  -2.13003 
 H                    -0.47659   1.61132  -1.64742 
 H                     0.84179   2.36528  -0.72293 
 H                    -0.81801   2.94152  -0.52175 
 

 GradGradGradGradGradGradGradGradGradGradGradGradGradGradGradGradGradGrad
 Berny optimization.
 Initialization pass.
                           ----------------------------
                           !    Initial Parameters    !
                           ! (Angstroms and Degrees)  !
 --------------------------                            --------------------------
 ! Name  Definition              Value          Derivative Info.                !
 --------------------------------------------------------------------------------
 ! R1    R(1,2)                  1.4897         estimate D2E/DX2                !
 ! R2    R(1,5)                  1.4908         estimate D2E/DX2                !
 ! R3    R(1,10)                 1.5122         estimate D2E/DX2                !
 ! R4    R(1,18)                 1.0995         estimate D2E/DX2                !
 ! R5    R(2,3)                  1.4363         estimate D2E/DX2                !
 ! R6    R(2,17)                 1.48           estimate D2E/DX2                !
 ! R7    R(3,4)                  1.4032         estimate D2E/DX2                !
 ! R8    R(3,9)                  1.3897         estimate D2E/DX2                !
 ! R9    R(4,5)                  1.4327         estimate D2E/DX2                !
 ! R10   R(4,6)                  1.3902         estimate D2E/DX2                !
 ! R11   R(5,16)                 1.4773         estimate D2E/DX2                !
 ! R12   R(6,7)                  1.402          estimate D2E/DX2                !
 ! R13   R(6,19)                 1.0875         estimate D2E/DX2                !
 ! R14   R(7,8)                  1.3996         estimate D2E/DX2                !
 ! R15   R(7,20)                 1.0875         estimate D2E/DX2                !
 ! R16   R(8,9)                  1.4019         estimate D2E/DX2                !
 ! R17   R(8,21)                 1.0874         estimate D2E/DX2                !
 ! R18   R(9,22)                 1.0875         estimate D2E/DX2                !
 ! R19   R(10,11)                1.4018         estimate D2E/DX2                !
 ! R20   R(10,15)                1.401          estimate D2E/DX2                !
 ! R21   R(11,12)                1.3961         estimate D2E/DX2                !
 ! R22   R(11,23)                1.0859         estimate D2E/DX2                !
 ! R23   R(12,13)                1.3963         estimate D2E/DX2                !
 ! R24   R(12,24)                1.0876         estimate D2E/DX2                !
 ! R25   R(13,14)                1.3962         estimate D2E/DX2                !
 ! R26   R(13,25)                1.0875         estimate D2E/DX2                !
 ! R27   R(14,15)                1.3964         estimate D2E/DX2                !
 ! R28   R(14,26)                1.0876         estimate D2E/DX2                !
 ! R29   R(15,27)                1.0858         estimate D2E/DX2                !
 ! R30   R(16,28)                1.0897         estimate D2E/DX2                !
 ! R31   R(16,29)                1.0976         estimate D2E/DX2                !
 ! R32   R(16,30)                1.0936         estimate D2E/DX2                !
 ! R33   R(17,31)                1.0975         estimate D2E/DX2                !
 ! R34   R(17,32)                1.0899         estimate D2E/DX2                !
 ! R35   R(17,33)                1.0935         estimate D2E/DX2                !
 ! A1    A(2,1,5)              107.6757         estimate D2E/DX2                !
 ! A2    A(2,1,10)             117.5611         estimate D2E/DX2                !
 ! A3    A(2,1,18)             103.0744         estimate D2E/DX2                !
 ! A4    A(5,1,10)             117.6278         estimate D2E/DX2                !
 ! A5    A(5,1,18)             103.0925         estimate D2E/DX2                !
 ! A6    A(10,1,18)            105.72           estimate D2E/DX2                !
 ! A7    A(1,2,3)               99.9309         estimate D2E/DX2                !
 ! A8    A(1,2,17)             118.2202         estimate D2E/DX2                !
 ! A9    A(3,2,17)             109.9608         estimate D2E/DX2                !
 ! A10   A(2,3,4)              110.389          estimate D2E/DX2                !
 ! A11   A(2,3,9)              128.3854         estimate D2E/DX2                !
 ! A12   A(4,3,9)              121.1534         estimate D2E/DX2                !
 ! A13   A(3,4,5)              110.5325         estimate D2E/DX2                !
 ! A14   A(3,4,6)              121.0322         estimate D2E/DX2                !
 ! A15   A(5,4,6)              128.4011         estimate D2E/DX2                !
 ! A16   A(1,5,4)              100.2213         estimate D2E/DX2                !
 ! A17   A(1,5,16)             119.3316         estimate D2E/DX2                !
 ! A18   A(4,5,16)             111.1143         estimate D2E/DX2                !
 ! A19   A(4,6,7)              118.0096         estimate D2E/DX2                !
 ! A20   A(4,6,19)             120.9516         estimate D2E/DX2                !
 ! A21   A(7,6,19)             121.0388         estimate D2E/DX2                !
 ! A22   A(6,7,8)              120.9444         estimate D2E/DX2                !
 ! A23   A(6,7,20)             119.442          estimate D2E/DX2                !
 ! A24   A(8,7,20)             119.613          estimate D2E/DX2                !
 ! A25   A(7,8,9)              120.8236         estimate D2E/DX2                !
 ! A26   A(7,8,21)             119.6637         estimate D2E/DX2                !
 ! A27   A(9,8,21)             119.5126         estimate D2E/DX2                !
 ! A28   A(3,9,8)              118.0331         estimate D2E/DX2                !
 ! A29   A(3,9,22)             120.8377         estimate D2E/DX2                !
 ! A30   A(8,9,22)             121.1269         estimate D2E/DX2                !
 ! A31   A(1,10,11)            120.2559         estimate D2E/DX2                !
 ! A32   A(1,10,15)            120.5913         estimate D2E/DX2                !
 ! A33   A(11,10,15)           118.4873         estimate D2E/DX2                !
 ! A34   A(10,11,12)           120.7552         estimate D2E/DX2                !
 ! A35   A(10,11,23)           119.9711         estimate D2E/DX2                !
 ! A36   A(12,11,23)           119.2571         estimate D2E/DX2                !
 ! A37   A(11,12,13)           120.2876         estimate D2E/DX2                !
 ! A38   A(11,12,24)           119.5209         estimate D2E/DX2                !
 ! A39   A(13,12,24)           120.1885         estimate D2E/DX2                !
 ! A40   A(12,13,14)           119.3334         estimate D2E/DX2                !
 ! A41   A(12,13,25)           120.3245         estimate D2E/DX2                !
 ! A42   A(14,13,25)           120.3329         estimate D2E/DX2                !
 ! A43   A(13,14,15)           120.2993         estimate D2E/DX2                !
 ! A44   A(13,14,26)           120.1695         estimate D2E/DX2                !
 ! A45   A(15,14,26)           119.529          estimate D2E/DX2                !
 ! A46   A(10,15,14)           120.7497         estimate D2E/DX2                !
 ! A47   A(10,15,27)           119.9858         estimate D2E/DX2                !
 ! A48   A(14,15,27)           119.2517         estimate D2E/DX2                !
 ! A49   A(5,16,28)            110.662          estimate D2E/DX2                !
 ! A50   A(5,16,29)            113.2171         estimate D2E/DX2                !
 ! A51   A(5,16,30)            107.7441         estimate D2E/DX2                !
 ! A52   A(28,16,29)           108.6921         estimate D2E/DX2                !
 ! A53   A(28,16,30)           108.0469         estimate D2E/DX2                !
 ! A54   A(29,16,30)           108.3271         estimate D2E/DX2                !
 ! A55   A(2,17,31)            112.9196         estimate D2E/DX2                !
 ! A56   A(2,17,32)            110.7486         estimate D2E/DX2                !
 ! A57   A(2,17,33)            107.8249         estimate D2E/DX2                !
 ! A58   A(31,17,32)           108.7487         estimate D2E/DX2                !
 ! A59   A(31,17,33)           108.2783         estimate D2E/DX2                !
 ! A60   A(32,17,33)           108.1843         estimate D2E/DX2                !
 ! D1    D(5,1,2,3)             32.6591         estimate D2E/DX2                !
 ! D2    D(5,1,2,17)           -86.5029         estimate D2E/DX2                !
 ! D3    D(10,1,2,3)           168.3292         estimate D2E/DX2                !
 ! D4    D(10,1,2,17)           49.1672         estimate D2E/DX2                !
 ! D5    D(18,1,2,3)           -75.8879         estimate D2E/DX2                !
 ! D6    D(18,1,2,17)          164.9501         estimate D2E/DX2                !
 ! D7    D(2,1,5,4)            -31.9903         estimate D2E/DX2                !
 ! D8    D(2,1,5,16)            89.4214         estimate D2E/DX2                !
 ! D9    D(10,1,5,4)          -167.6263         estimate D2E/DX2                !
 ! D10   D(10,1,5,16)          -46.2146         estimate D2E/DX2                !
 ! D11   D(18,1,5,4)            76.5442         estimate D2E/DX2                !
 ! D12   D(18,1,5,16)         -162.0441         estimate D2E/DX2                !
 ! D13   D(2,1,10,11)         -161.4117         estimate D2E/DX2                !
 ! D14   D(2,1,10,15)           28.0778         estimate D2E/DX2                !
 ! D15   D(5,1,10,11)          -30.1308         estimate D2E/DX2                !
 ! D16   D(5,1,10,15)          159.3586         estimate D2E/DX2                !
 ! D17   D(18,1,10,11)          84.2583         estimate D2E/DX2                !
 ! D18   D(18,1,10,15)         -86.2523         estimate D2E/DX2                !
 ! D19   D(1,2,3,4)            -20.6719         estimate D2E/DX2                !
 ! D20   D(1,2,3,9)            162.4325         estimate D2E/DX2                !
 ! D21   D(17,2,3,4)           104.3806         estimate D2E/DX2                !
 ! D22   D(17,2,3,9)           -72.5151         estimate D2E/DX2                !
 ! D23   D(1,2,17,31)           60.7074         estimate D2E/DX2                !
 ! D24   D(1,2,17,32)          -61.5247         estimate D2E/DX2                !
 ! D25   D(1,2,17,33)         -179.7123         estimate D2E/DX2                !
 ! D26   D(3,2,17,31)          -53.0674         estimate D2E/DX2                !
 ! D27   D(3,2,17,32)         -175.2996         estimate D2E/DX2                !
 ! D28   D(3,2,17,33)           66.5128         estimate D2E/DX2                !
 ! D29   D(2,3,4,5)              1.3254         estimate D2E/DX2                !
 ! D30   D(2,3,4,6)           -176.7165         estimate D2E/DX2                !
 ! D31   D(9,3,4,5)            178.4822         estimate D2E/DX2                !
 ! D32   D(9,3,4,6)              0.4403         estimate D2E/DX2                !
 ! D33   D(2,3,9,8)            176.7288         estimate D2E/DX2                !
 ! D34   D(2,3,9,22)            -2.7206         estimate D2E/DX2                !
 ! D35   D(4,3,9,8)              0.1294         estimate D2E/DX2                !
 ! D36   D(4,3,9,22)          -179.3201         estimate D2E/DX2                !
 ! D37   D(3,4,5,1)             18.6875         estimate D2E/DX2                !
 ! D38   D(3,4,5,16)          -108.413          estimate D2E/DX2                !
 ! D39   D(6,4,5,1)           -163.4536         estimate D2E/DX2                !
 ! D40   D(6,4,5,16)            69.446          estimate D2E/DX2                !
 ! D41   D(3,4,6,7)             -0.6756         estimate D2E/DX2                !
 ! D42   D(3,4,6,19)           179.3293         estimate D2E/DX2                !
 ! D43   D(5,4,6,7)           -178.3355         estimate D2E/DX2                !
 ! D44   D(5,4,6,19)             1.6694         estimate D2E/DX2                !
 ! D45   D(1,5,16,28)           61.8198         estimate D2E/DX2                !
 ! D46   D(1,5,16,29)          -60.4873         estimate D2E/DX2                !
 ! D47   D(1,5,16,30)          179.7439         estimate D2E/DX2                !
 ! D48   D(4,5,16,28)          177.6162         estimate D2E/DX2                !
 ! D49   D(4,5,16,29)           55.3091         estimate D2E/DX2                !
 ! D50   D(4,5,16,30)          -64.4597         estimate D2E/DX2                !
 ! D51   D(4,6,7,8)              0.3602         estimate D2E/DX2                !
 ! D52   D(4,6,7,20)          -179.3679         estimate D2E/DX2                !
 ! D53   D(19,6,7,8)          -179.6447         estimate D2E/DX2                !
 ! D54   D(19,6,7,20)            0.6272         estimate D2E/DX2                !
 ! D55   D(6,7,8,9)              0.2008         estimate D2E/DX2                !
 ! D56   D(6,7,8,21)          -179.665          estimate D2E/DX2                !
 ! D57   D(20,7,8,9)           179.9284         estimate D2E/DX2                !
 ! D58   D(20,7,8,21)            0.0627         estimate D2E/DX2                !
 ! D59   D(7,8,9,3)             -0.4433         estimate D2E/DX2                !
 ! D60   D(7,8,9,22)           179.0045         estimate D2E/DX2                !
 ! D61   D(21,8,9,3)           179.4226         estimate D2E/DX2                !
 ! D62   D(21,8,9,22)           -1.1296         estimate D2E/DX2                !
 ! D63   D(1,10,11,12)        -173.8878         estimate D2E/DX2                !
 ! D64   D(1,10,11,23)           4.621          estimate D2E/DX2                !
 ! D65   D(15,10,11,12)         -3.1801         estimate D2E/DX2                !
 ! D66   D(15,10,11,23)        175.3287         estimate D2E/DX2                !
 ! D67   D(1,10,15,14)         173.8366         estimate D2E/DX2                !
 ! D68   D(1,10,15,27)          -4.8511         estimate D2E/DX2                !
 ! D69   D(11,10,15,14)          3.1611         estimate D2E/DX2                !
 ! D70   D(11,10,15,27)       -175.5266         estimate D2E/DX2                !
 ! D71   D(10,11,12,13)          1.0491         estimate D2E/DX2                !
 ! D72   D(10,11,12,24)       -179.5836         estimate D2E/DX2                !
 ! D73   D(23,11,12,13)       -177.4702         estimate D2E/DX2                !
 ! D74   D(23,11,12,24)          1.8971         estimate D2E/DX2                !
 ! D75   D(11,12,13,14)          1.1594         estimate D2E/DX2                !
 ! D76   D(11,12,13,25)       -179.9404         estimate D2E/DX2                !
 ! D77   D(24,12,13,14)       -178.2037         estimate D2E/DX2                !
 ! D78   D(24,12,13,25)          0.6965         estimate D2E/DX2                !
 ! D79   D(12,13,14,15)         -1.1782         estimate D2E/DX2                !
 ! D80   D(12,13,14,26)        178.2827         estimate D2E/DX2                !
 ! D81   D(25,13,14,15)        179.9217         estimate D2E/DX2                !
 ! D82   D(25,13,14,26)         -0.6174         estimate D2E/DX2                !
 ! D83   D(13,14,15,10)         -1.012          estimate D2E/DX2                !
 ! D84   D(13,14,15,27)        177.6852         estimate D2E/DX2                !
 ! D85   D(26,14,15,10)        179.5237         estimate D2E/DX2                !
 ! D86   D(26,14,15,27)         -1.7791         estimate D2E/DX2                !
 --------------------------------------------------------------------------------
 Trust Radius=3.00D-01 FncErr=1.00D-07 GrdErr=1.00D-06 EigMax=2.50D+02 EigMin=1.00D-04
 Number of steps in this run=    198 maximum allowed number of steps=    198.
 GradGradGradGradGradGradGradGradGradGradGradGradGradGradGradGradGradGrad

                          Input orientation:                          
 ---------------------------------------------------------------------
 Center     Atomic      Atomic             Coordinates (Angstroms)
 Number     Number       Type             X           Y           Z
 ---------------------------------------------------------------------
      1          6           0        0.311142   -0.158966    0.477070
      2          7           0       -0.428043    1.134263    0.457326
      3          6           0       -1.778995    0.647054    0.432799
      4          6           0       -1.812437   -0.678323   -0.026906
      5          7           0       -0.487228   -1.148620   -0.301272
      6          6           0       -3.019250   -1.345704   -0.202623
      7          6           0       -4.202141   -0.659750    0.107008
      8          6           0       -4.168171    0.660033    0.571728
      9          6           0       -2.949195    1.332607    0.735915
     10          6           0        1.803219   -0.115815    0.234922
     11          6           0        2.491095   -1.276855   -0.144184
     12          6           0        3.883368   -1.280251   -0.247282
     13          6           0        4.614219   -0.127782    0.048323
     14          6           0        3.940523    1.019702    0.471183
     15          6           0        2.547870    1.021605    0.573425
     16          6           0       -0.259262   -1.279356   -1.755035
     17          6           0       -0.201402    2.052562   -0.680927
     18          1           0        0.187526   -0.500294    1.514927
     19          1           0       -3.044153   -2.369234   -0.569247
     20          1           0       -5.158717   -1.163106   -0.011938
     21          1           0       -5.098078    1.170504    0.810832
     22          1           0       -2.917905    2.363344    1.081384
     23          1           0        1.942326   -2.193685   -0.337940
     24          1           0        4.396132   -2.190472   -0.549712
     25          1           0        5.698655   -0.129474   -0.032712
     26          1           0        4.498349    1.916220    0.731773
     27          1           0        2.043986    1.910807    0.940118
     28          1           0        0.763377   -1.597003   -1.956840
     29          1           0       -0.455408   -0.352248   -2.308874
     30          1           0       -0.934682   -2.053372   -2.130029
     31          1           0       -0.476590    1.611322   -1.647416
     32          1           0        0.841786    2.365284   -0.722934
     33          1           0       -0.818012    2.941524   -0.521748
 ---------------------------------------------------------------------
                    Distance matrix (angstroms):
                    1          2          3          4          5
     1  C    0.000000
     2  N    1.489706   0.000000
     3  C    2.240603   1.436330   0.000000
     4  C    2.243504   2.331629   1.403236   0.000000
     5  N    1.490848   2.406352   2.330659   1.432702   0.000000
     6  C    3.600255   3.646933   2.431682   1.390205   2.541595
     7  C    4.556034   4.193449   2.772275   2.393525   3.769120
     8  C    4.554554   3.771809   2.393247   2.774715   4.193173
     9  C    3.594661   2.544241   1.389687   2.432685   3.646029
    10  C    1.512215   2.567234   3.667886   3.668507   2.569113
    11  C    2.527416   3.833624   4.718899   4.346537   2.985219
    12  C    3.813498   4.991454   6.019915   5.731761   4.372912
    13  C    4.324497   5.213871   6.451464   6.450633   5.214316
    14  C    3.815980   4.370090   5.731774   6.018965   4.990320
    15  C    2.531005   2.980307   4.345322   4.718308   3.832335
    16  C    2.561821   3.278503   3.287440   2.400004   1.477324
    17  C    2.548434   1.479953   2.388438   3.237423   3.236264
    18  H    1.099514   2.041867   2.520836   2.531560   2.043086
    19  H    4.151875   4.491366   3.420923   2.161119   2.845975
    20  H    5.582721   5.279904   3.859662   3.381246   4.680462
    21  H    5.580193   4.683536   3.381305   3.862047   5.279683
    22  H    4.141737   2.845962   2.159497   3.420834   4.489301
    23  H    2.732231   4.162491   4.744689   4.060949   2.645040
    24  H    4.676371   5.944801   6.866519   6.411416   4.999438
    25  H    5.411658   6.274838   7.532260   7.531120   6.275024
    26  H    4.680168   4.995610   6.411335   6.865367   5.942761
    27  H    2.738818   2.635723   4.058279   4.744547   4.160311
    28  H    2.862933   3.835035   4.148473   3.347154   2.122726
    29  H    2.895935   3.140434   3.204257   2.674926   2.160020
    30  H    3.455114   4.136678   3.817493   2.661642   2.088813
    31  H    2.875393   2.158676   2.636924   3.106930   3.070749
    32  H    2.844896   2.126240   3.340139   4.097914   3.780424
    33  H    3.447560   2.092094   2.664440   3.786428   4.109417
                    6          7          8          9         10
     6  C    0.000000
     7  C    1.402011   0.000000
     8  C    2.437749   1.399623   0.000000
     9  C    2.838857   2.436161   1.401862   0.000000
    10  C    4.996027   6.031300   6.030994   4.993432   0.000000
    11  C    5.511085   6.726316   6.972080   6.097592   1.401752
    12  C    6.903073   8.117019   8.322426   7.380896   2.432170
    13  C    7.734091   8.832589   8.833175   7.733742   2.817212
    14  C    7.381572   8.322029   8.117290   6.901900   2.431725
    15  C    6.099117   6.971882   6.725767   5.508253   1.401004
    16  C    3.167320   4.404249   4.945161   4.501435   3.093152
    17  C    4.440411   4.897283   4.386746   3.174294   3.091788
    18  H    3.734717   4.612682   4.605223   3.715563   2.096831
    19  H    1.087495   2.172692   3.426616   3.926333   5.405701
    20  H    2.155695   1.087453   2.155384   3.416117   7.044594
    21  H    3.417590   2.155900   1.087419   2.156290   7.043735
    22  H    3.926319   3.426042   2.173519   1.087541   5.399235
    23  H    5.035337   6.348654   6.805099   6.124939   2.159876
    24  H    7.471412   8.758121   9.095620   8.247349   3.412191
    25  H    8.803973   9.915970   9.916800   8.804191   3.904642
    26  H    8.247880   9.095299   8.758549   7.470377   3.411708
    27  H    6.127567   6.805581   6.347523   5.030693   2.159275
    28  H    4.177163   5.458414   5.983982   5.442126   2.842360
    29  H    3.463601   4.468675   4.806994   4.281174   3.410014
    30  H    2.925938   4.197953   5.011737   4.872038   4.104049
    31  H    4.158912   4.702712   4.411046   3.445537   3.423994
    32  H    5.380498   5.939767   5.448276   4.191206   2.828020
    33  H    4.829866   4.981649   4.198149   2.951655   4.097649
                   11         12         13         14         15
    11  C    0.000000
    12  C    1.396089   0.000000
    13  C    2.421793   1.396320   0.000000
    14  C    2.784546   2.410237   1.396208   0.000000
    15  C    2.408548   2.784898   2.422111   1.396403   0.000000
    16  C    3.187368   4.408481   5.322504   5.280143   4.312324
    17  C    4.315397   5.289711   5.336283   4.421505   3.192925
    18  H    2.943150   4.168089   4.678173   4.181481   2.962065
    19  H    5.657998   7.019979   8.003510   7.832821   6.638841
    20  H    7.651800   9.045906   9.827808   9.369857   8.031631
    21  H    8.031014   9.369749   9.828311   9.046238   7.651082
    22  H    6.634030   7.829333   8.000363   7.015394   5.650927
    23  H    1.085941   2.147144   3.399437   3.869539   3.396375
    24  H    2.151352   1.087609   2.158680   3.399269   3.872331
    25  H    3.408423   2.159998   1.087460   2.159987   3.408787
    26  H    3.871963   3.399144   2.158350   1.087576   2.151692
    27  H    3.396588   3.869896   3.399594   2.147282   1.085837
    28  H    2.524525   3.571732   4.583478   4.778776   4.055091
    29  H    3.771294   4.892477   5.595344   5.379142   4.383469
    30  H    4.035159   5.230302   6.264456   6.322793   5.375157
    31  H    4.405499   5.415792   5.640598   4.934508   3.798323
    32  H    4.039845   4.771519   4.587098   3.583110   2.529178
    33  H    5.374706   6.324689   6.265362   5.227138   4.026743
                   16         17         18         19         20
    16  C    0.000000
    17  C    3.501247   0.000000
    18  H    3.391048   3.389707   0.000000
    19  H    3.217071   5.257945   4.275566   0.000000
    20  H    5.201591   5.946682   5.599370   2.497341   0.000000
    21  H    5.999969   5.194305   5.587927   4.318909   2.475150
    22  H    5.327562   3.252954   4.246420   5.013762   4.318847
    23  H    2.773292   4.769049   3.062681   4.994927   7.182839
    24  H    4.894449   6.257626   4.983152   7.442458   9.624958
    25  H    6.307567   6.323934   5.736308   9.041077  10.906481
    26  H    6.247462   4.909376   5.003605   8.771950  10.163379
    27  H    4.769270   2.773022   3.096814   6.818071   7.888870
    28  H    1.089686   3.984731   3.686128   4.125414   6.248368
    29  H    1.097606   2.915105   3.880301   3.714315   5.296652
    30  H    1.093578   4.415460   4.117900   2.643044   4.808467
    31  H    2.900833   1.097507   3.860102   4.857947   5.682830
    32  H    3.944736   1.089864   3.694268   6.126974   6.997220
    33  H    4.432722   1.093526   4.123744   5.758655   5.995799
                   21         22         23         24         25
    21  H    0.000000
    22  H    2.499844   0.000000
    23  H    7.886998   6.811963   0.000000
    24  H   10.163035   8.768857   2.462930   0.000000
    25  H   10.907381   9.038830   4.296992   2.492302   0.000000
    26  H    9.625682   7.437941   4.956699   4.303205   2.491995
    27  H    7.181493   4.984487   4.300073   4.957083   4.297179
    28  H    7.048104   6.202176   2.089686   3.940701   5.496624
    29  H    5.797045   4.993214   3.608961   5.478244   6.565289
    30  H    6.031245   5.809796   3.392409   5.561814   7.218121
    31  H    5.253138   3.737902   4.695099   6.277102   6.615987
    32  H    6.249955   4.170233   4.705700   5.780856   5.503580
    33  H    4.819880   2.704417   5.832978   7.316110   7.220605
                   26         27         28         29         30
    26  H    0.000000
    27  H    2.463196   0.000000
    28  H    5.789766   4.726209   0.000000
    29  H    6.239486   4.682343   1.777295   0.000000
    30  H    7.312003   5.832064   1.766825   1.776376   0.000000
    31  H    5.522999   3.624683   3.453492   2.072096   3.724613
    32  H    3.960843   2.101803   4.150710   3.403366   4.965911
    33  H    5.557540   3.374976   5.015826   3.764869   5.248730
                   31         32         33
    31  H    0.000000
    32  H    1.777988   0.000000
    33  H    1.775707   1.768463   0.000000
 Stoichiometry    C15H16N2
 Framework group  C1[X(C15H16N2)]
 Deg. of freedom    93
 Full point group                 C1      NOp   1
 Largest Abelian subgroup         C1      NOp   1
 Largest concise Abelian subgroup C1      NOp   1
                         Standard orientation:                         
 ---------------------------------------------------------------------
 Center     Atomic      Atomic             Coordinates (Angstroms)
 Number     Number       Type             X           Y           Z
 ---------------------------------------------------------------------
      1          6           0        0.288436   -0.005751   -0.514560
      2          7           0       -0.477265   -1.208162   -0.081969
      3          6           0       -1.817225   -0.705178   -0.202637
      4          6           0       -1.816174    0.697945   -0.184803
      5          7           0       -0.477527    1.198190   -0.082756
      6          6           0       -3.006049    1.416019   -0.219983
      7          6           0       -4.207454    0.696590   -0.288428
      8          6           0       -4.207934   -0.702820   -0.312790
      9          6           0       -3.005839   -1.422480   -0.265119
     10          6           0        1.782685   -0.006811   -0.282152
     11          6           0        2.500195    1.197325   -0.294191
     12          6           0        3.893600    1.198984   -0.207679
     13          6           0        4.595760   -0.005415   -0.129550
     14          6           0        3.892065   -1.210846   -0.163409
     15          6           0        2.498324   -1.210809   -0.249577
     16          6           0       -0.225521    1.775371    1.253598
     17          6           0       -0.253165   -1.725614    1.286345
     18          1           0        0.156736   -0.006449   -1.606158
     19          1           0       -3.004145    2.503230   -0.195199
     20          1           0       -5.151440    1.235029   -0.327510
     21          1           0       -5.151731   -1.239728   -0.371599
     22          1           0       -3.001198   -2.510008   -0.267603
     23          1           0        1.973630    2.141601   -0.395874
     24          1           0        4.429682    2.145288   -0.211969
     25          1           0        5.681068   -0.004795   -0.061170
     26          1           0        4.427125   -2.157166   -0.131618
     27          1           0        1.970614   -2.157671   -0.312963
     28          1           0        0.806396    2.115326    1.337233
     29          1           0       -0.432847    1.075499    2.073314
     30          1           0       -0.879015    2.644468    1.369906
     31          1           0       -0.504820   -0.995333    2.066013
     32          1           0        0.783760   -2.034550    1.417295
     33          1           0       -0.890508   -2.604004    1.420598
 ---------------------------------------------------------------------
 Rotational constants (GHZ):           1.3138756           0.2871968           0.2521118
 Standard basis: 6-31+G(d,p) (6D, 7F)
 There are   403 symmetry adapted cartesian basis functions of A   symmetry.
 There are   403 symmetry adapted basis functions of A   symmetry.
   403 basis functions,   656 primitive gaussians,   403 cartesian basis functions
    60 alpha electrons       60 beta electrons
       nuclear repulsion energy      1162.1064375153 Hartrees.
 NAtoms=   33 NActive=   33 NUniq=   33 SFac= 1.00D+00 NAtFMM=   60 NAOKFM=F Big=F
 Integral buffers will be    131072 words long.
 Raffenetti 2 integral format.
 Two-electron integral symmetry is turned on.
 Nuclear repulsion after empirical dispersion term =     1162.0805322192 Hartrees.
 ------------------------------------------------------------------------------
 Polarizable Continuum Model (PCM)
 =================================
 Model                : PCM.
 Atomic radii         : SMD-Coulomb.
 Polarization charges : Total charges.
 Charge compensation  : None.
 Solution method      : On-the-fly selection.
 Cavity type          : VdW (van der Waals Surface) (Alpha=1.000).
 Cavity algorithm     : GePol (No added spheres)
                        Default sphere list used, NSphG=   33.
                        Lebedev-Laikov grids with approx.  5.0 points / Ang**2.
                        Smoothing algorithm: York/Karplus (Gamma=1.0000).
                        Polarization charges: spherical gaussians, with
                                              point-specific exponents (IZeta= 3).
                        Self-potential: point-specific (ISelfS= 7).
                        Self-field    : sphere-specific E.n sum rule (ISelfD= 2).
 1st derivatives      : Analytical E(r).r(x)/FMM algorithm (CHGder, D1EAlg=3).
                        Cavity 1st derivative terms included.
 Solvent              : Acetonitrile, Eps=  35.688000 Eps(inf)=   1.806874
 ------------------------------------------------------------------------------
 ------------------------------------------------------------------------------
 Atomic radii for non-electrostatic terms: SMD-CDS.
 ------------------------------------------------------------------------------
 Nuclear repulsion after PCM non-electrostatic terms =     1162.0754003176 Hartrees.
 One-electron integrals computed using PRISM.
 NBasis=   403 RedAO= T EigKep=  1.41D-06  NBF=   403
 NBsUse=   402 1.00D-06 EigRej=  3.80D-07 NBFU=   402
 ExpMin= 4.38D-02 ExpMax= 4.17D+03 ExpMxC= 6.27D+02 IAcc=3 IRadAn=         5 AccDes= 0.00D+00
 Harris functional with IExCor= 4639 and IRadAn=       5 diagonalized for initial guess.
 HarFok:  IExCor= 4639 AccDes= 0.00D+00 IRadAn=         5 IDoV= 1 UseB2=F ITyADJ=14
 ICtDFT=  3500011 ScaDFX=  1.000000  1.000000  1.000000  1.000000
 FoFCou: FMM=F IPFlag=           0 FMFlag=      100000 FMFlg1=           0
         NFxFlg=           0 DoJE=T BraDBF=F KetDBF=T FulRan=T
         wScrn=  0.000000 ICntrl=       500 IOpCl=  0 I1Cent=   200000004 NGrid=           0
         NMat0=    1 NMatS0=      1 NMatT0=    0 NMatD0=    1 NMtDS0=    0 NMtDT0=    0
 Petite list used in FoFCou.
 Initial guess <Sx>= 0.0000 <Sy>= 0.0000 <Sz>= 0.0000 <S**2>=-0.0000 S=-0.0000
 Requested convergence on RMS density matrix=1.00D-08 within 500 cycles.
 Requested convergence on MAX density matrix=1.00D-06.
 Requested convergence on             energy=1.00D-06.
 No special actions if energy rises.
 Inv3:  Mode=1 IEnd=    17136300.
 Iteration    1 A*A^-1 deviation from unit magnitude is 9.19D-14 for    122.
 Iteration    1 A*A^-1 deviation from orthogonality  is 1.22D-13 for   2310    314.
 Iteration    1 A^-1*A deviation from unit magnitude is 9.24D-14 for   2208.
 Iteration    1 A^-1*A deviation from orthogonality  is 1.58D-13 for   2060    122.
 Error on total polarization charges =  0.06120
 SCF Done:  E(UwB97XD) =  -690.540866165     A.U. after   16 cycles
            NFock= 16  Conv=0.80D-08     -V/T= 2.0097
 <Sx>= 0.0000 <Sy>= 0.0000 <Sz>= 0.0000 <S**2>=-0.0000 S=-0.0000
 <L.S>= 0.000000000000E+00
 SMD-CDS (non-electrostatic) energy       (kcal/mol) =      -3.22
 (included in total energy above)
 Annihilation of the first spin contaminant:
 S**2 before annihilation    -0.0000,   after    -0.0000

 **********************************************************************

            Population analysis using the SCF Density.

 **********************************************************************

 Orbital symmetries:
 Alpha Orbitals:
       Occupied  (A) (A) (A) (A) (A) (A) (A) (A) (A) (A) (A) (A)
                 (A) (A) (A) (A) (A) (A) (A) (A) (A) (A) (A) (A)
                 (A) (A) (A) (A) (A) (A) (A) (A) (A) (A) (A) (A)
                 (A) (A) (A) (A) (A) (A) (A) (A) (A) (A) (A) (A)
                 (A) (A) (A) (A) (A) (A) (A) (A) (A) (A) (A) (A)
       Virtual   (A) (A) (A) (A) (A) (A) (A) (A) (A) (A) (A) (A)
                 (A) (A) (A) (A) (A) (A) (A) (A) (A) (A) (A) (A)
                 (A) (A) (A) (A) (A) (A) (A) (A) (A) (A) (A) (A)
                 (A) (A) (A) (A) (A) (A) (A) (A) (A) (A) (A) (A)
                 (A) (A) (A) (A) (A) (A) (A) (A) (A) (A) (A) (A)
                 (A) (A) (A) (A) (A) (A) (A) (A) (A) (A) (A) (A)
                 (A) (A) (A) (A) (A) (A) (A) (A) (A) (A) (A) (A)
                 (A) (A) (A) (A) (A) (A) (A) (A) (A) (A) (A) (A)
                 (A) (A) (A) (A) (A) (A) (A) (A) (A) (A) (A) (A)
                 (A) (A) (A) (A) (A) (A) (A) (A) (A) (A) (A) (A)
                 (A) (A) (A) (A) (A) (A) (A) (A) (A) (A) (A) (A)
                 (A) (A) (A) (A) (A) (A) (A) (A) (A) (A) (A) (A)
                 (A) (A) (A) (A) (A) (A) (A) (A) (A) (A) (A) (A)
                 (A) (A) (A) (A) (A) (A) (A) (A) (A) (A) (A) (A)
                 (A) (A) (A) (A) (A) (A) (A) (A) (A) (A) (A) (A)
                 (A) (A) (A) (A) (A) (A) (A) (A) (A) (A) (A) (A)
                 (A) (A) (A) (A) (A) (A) (A) (A) (A) (A) (A) (A)
                 (A) (A) (A) (A) (A) (A) (A) (A) (A) (A) (A) (A)
                 (A) (A) (A) (A) (A) (A) (A) (A) (A) (A) (A) (A)
                 (A) (A) (A) (A) (A) (A) (A) (A) (A) (A) (A) (A)
                 (A) (A) (A) (A) (A) (A) (A) (A) (A) (A) (A) (A)
                 (A) (A) (A) (A) (A) (A) (A) (A) (A) (A) (A) (A)
                 (A) (A) (A) (A) (A) (A) (A) (A) (A) (A) (A) (A)
                 (A) (A) (A) (A) (A) (A) (A) (A) (A) (A) (A) (A)
                 (A) (A) (A) (A) (A) (A) (A) (A) (A) (A) (A) (A)
                 (A) (A) (A) (A) (A) (A) (A) (A) (A) (A) (A) (A)
                 (A) (A) (A) (A) (A) (A) (A) (A) (A) (A) (A) (A)
                 (A) (A) (A) (A) (A) (A) (A) (A) (A) (A) (A) (A)
                 (A) (A) (A) (A) (A) (A)
 Beta  Orbitals:
       Occupied  (A) (A) (A) (A) (A) (A) (A) (A) (A) (A) (A) (A)
                 (A) (A) (A) (A) (A) (A) (A) (A) (A) (A) (A) (A)
                 (A) (A) (A) (A) (A) (A) (A) (A) (A) (A) (A) (A)
                 (A) (A) (A) (A) (A) (A) (A) (A) (A) (A) (A) (A)
                 (A) (A) (A) (A) (A) (A) (A) (A) (A) (A) (A) (A)
       Virtual   (A) (A) (A) (A) (A) (A) (A) (A) (A) (A) (A) (A)
                 (A) (A) (A) (A) (A) (A) (A) (A) (A) (A) (A) (A)
                 (A) (A) (A) (A) (A) (A) (A) (A) (A) (A) (A) (A)
                 (A) (A) (A) (A) (A) (A) (A) (A) (A) (A) (A) (A)
                 (A) (A) (A) (A) (A) (A) (A) (A) (A) (A) (A) (A)
                 (A) (A) (A) (A) (A) (A) (A) (A) (A) (A) (A) (A)
                 (A) (A) (A) (A) (A) (A) (A) (A) (A) (A) (A) (A)
                 (A) (A) (A) (A) (A) (A) (A) (A) (A) (A) (A) (A)
                 (A) (A) (A) (A) (A) (A) (A) (A) (A) (A) (A) (A)
                 (A) (A) (A) (A) (A) (A) (A) (A) (A) (A) (A) (A)
                 (A) (A) (A) (A) (A) (A) (A) (A) (A) (A) (A) (A)
                 (A) (A) (A) (A) (A) (A) (A) (A) (A) (A) (A) (A)
                 (A) (A) (A) (A) (A) (A) (A) (A) (A) (A) (A) (A)
                 (A) (A) (A) (A) (A) (A) (A) (A) (A) (A) (A) (A)
                 (A) (A) (A) (A) (A) (A) (A) (A) (A) (A) (A) (A)
                 (A) (A) (A) (A) (A) (A) (A) (A) (A) (A) (A) (A)
                 (A) (A) (A) (A) (A) (A) (A) (A) (A) (A) (A) (A)
                 (A) (A) (A) (A) (A) (A) (A) (A) (A) (A) (A) (A)
                 (A) (A) (A) (A) (A) (A) (A) (A) (A) (A) (A) (A)
                 (A) (A) (A) (A) (A) (A) (A) (A) (A) (A) (A) (A)
                 (A) (A) (A) (A) (A) (A) (A) (A) (A) (A) (A) (A)
                 (A) (A) (A) (A) (A) (A) (A) (A) (A) (A) (A) (A)
                 (A) (A) (A) (A) (A) (A) (A) (A) (A) (A) (A) (A)
                 (A) (A) (A) (A) (A) (A) (A) (A) (A) (A) (A) (A)
                 (A) (A) (A) (A) (A) (A) (A) (A) (A) (A) (A) (A)
                 (A) (A) (A) (A) (A) (A) (A) (A) (A) (A) (A) (A)
                 (A) (A) (A) (A) (A) (A) (A) (A) (A) (A) (A) (A)
                 (A) (A) (A) (A) (A) (A) (A) (A) (A) (A) (A) (A)
                 (A) (A) (A) (A) (A) (A)
 The electronic state is 1-A.
 Alpha  occ. eigenvalues --  -14.46562 -14.46555 -10.36409 -10.33324 -10.33238
 Alpha  occ. eigenvalues --  -10.32192 -10.31258 -10.31221 -10.30729 -10.30728
 Alpha  occ. eigenvalues --  -10.30691 -10.30675 -10.30671 -10.30661 -10.30574
 Alpha  occ. eigenvalues --  -10.30514 -10.30450  -1.08957  -0.98998  -0.96535
 Alpha  occ. eigenvalues --   -0.94614  -0.87194  -0.84906  -0.84306  -0.83551
 Alpha  occ. eigenvalues --   -0.81112  -0.76157  -0.73440  -0.70537  -0.68506
 Alpha  occ. eigenvalues --   -0.67615  -0.66627  -0.60809  -0.59765  -0.58091
 Alpha  occ. eigenvalues --   -0.57668  -0.55968  -0.53470  -0.53425  -0.52219
 Alpha  occ. eigenvalues --   -0.51782  -0.51476  -0.50927  -0.50555  -0.48787
 Alpha  occ. eigenvalues --   -0.47683  -0.46764  -0.46671  -0.45280  -0.44945
 Alpha  occ. eigenvalues --   -0.43711  -0.42782  -0.41832  -0.41683  -0.36607
 Alpha  occ. eigenvalues --   -0.34792  -0.33233  -0.32619  -0.30245  -0.29016
 Alpha virt. eigenvalues --    0.04388   0.05300   0.05372   0.06259   0.06984
 Alpha virt. eigenvalues --    0.07905   0.08348   0.08761   0.08965   0.09647
 Alpha virt. eigenvalues --    0.10365   0.10633   0.10829   0.11058   0.11381
 Alpha virt. eigenvalues --    0.11959   0.13105   0.13402   0.13572   0.14217
 Alpha virt. eigenvalues --    0.14584   0.15186   0.15781   0.16679   0.16918
 Alpha virt. eigenvalues --    0.17324   0.17578   0.18534   0.18843   0.19679
 Alpha virt. eigenvalues --    0.19785   0.20017   0.20725   0.20797   0.21186
 Alpha virt. eigenvalues --    0.21301   0.21823   0.21993   0.22689   0.23283
 Alpha virt. eigenvalues --    0.23528   0.23598   0.23931   0.24045   0.24845
 Alpha virt. eigenvalues --    0.24900   0.25417   0.25805   0.25963   0.26578
 Alpha virt. eigenvalues --    0.26896   0.27211   0.27518   0.27898   0.28445
 Alpha virt. eigenvalues --    0.28734   0.29009   0.29263   0.29611   0.29814
 Alpha virt. eigenvalues --    0.30642   0.30700   0.31028   0.31203   0.31275
 Alpha virt. eigenvalues --    0.32491   0.32669   0.33081   0.33565   0.33658
 Alpha virt. eigenvalues --    0.34224   0.34590   0.34692   0.35075   0.35280
 Alpha virt. eigenvalues --    0.36202   0.36570   0.37001   0.37300   0.37559
 Alpha virt. eigenvalues --    0.37636   0.39626   0.40005   0.40458   0.41244
 Alpha virt. eigenvalues --    0.41568   0.42031   0.43284   0.43636   0.44124
 Alpha virt. eigenvalues --    0.45258   0.45522   0.46537   0.46780   0.47137
 Alpha virt. eigenvalues --    0.49137   0.49514   0.49820   0.52448   0.52531
 Alpha virt. eigenvalues --    0.53962   0.54325   0.54871   0.61128   0.66636
 Alpha virt. eigenvalues --    0.67794   0.70038   0.72121   0.72479   0.74167
 Alpha virt. eigenvalues --    0.76410   0.77610   0.77811   0.78207   0.79080
 Alpha virt. eigenvalues --    0.79261   0.80350   0.81433   0.81909   0.82515
 Alpha virt. eigenvalues --    0.83156   0.83372   0.83877   0.85209   0.85284
 Alpha virt. eigenvalues --    0.85689   0.86331   0.87338   0.89807   0.89981
 Alpha virt. eigenvalues --    0.90044   0.91741   0.92411   0.92862   0.94573
 Alpha virt. eigenvalues --    0.95062   0.95851   0.97172   0.97376   0.99266
 Alpha virt. eigenvalues --    1.00143   1.02253   1.02848   1.03518   1.03668
 Alpha virt. eigenvalues --    1.03971   1.04655   1.05730   1.07158   1.08523
 Alpha virt. eigenvalues --    1.08673   1.10073   1.10571   1.11062   1.12273
 Alpha virt. eigenvalues --    1.12355   1.15244   1.15969   1.17096   1.18846
 Alpha virt. eigenvalues --    1.19759   1.21049   1.22123   1.22725   1.23545
 Alpha virt. eigenvalues --    1.23595   1.24240   1.25908   1.25949   1.27388
 Alpha virt. eigenvalues --    1.28624   1.29109   1.31480   1.33172   1.33714
 Alpha virt. eigenvalues --    1.35330   1.35500   1.35886   1.37444   1.40400
 Alpha virt. eigenvalues --    1.41283   1.41928   1.43130   1.45687   1.47565
 Alpha virt. eigenvalues --    1.48618   1.49328   1.50093   1.50460   1.51559
 Alpha virt. eigenvalues --    1.51865   1.52732   1.53167   1.54516   1.56631
 Alpha virt. eigenvalues --    1.61347   1.61730   1.63734   1.65265   1.71557
 Alpha virt. eigenvalues --    1.72074   1.77625   1.81350   1.85504   1.88109
 Alpha virt. eigenvalues --    1.89698   1.91591   1.91956   1.92795   1.93292
 Alpha virt. eigenvalues --    1.94074   1.95088   1.96530   1.99309   2.00294
 Alpha virt. eigenvalues --    2.00457   2.00845   2.02485   2.03816   2.05101
 Alpha virt. eigenvalues --    2.05527   2.06372   2.07581   2.08313   2.09049
 Alpha virt. eigenvalues --    2.09152   2.10262   2.10499   2.11860   2.14126
 Alpha virt. eigenvalues --    2.14653   2.14842   2.16565   2.17460   2.18168
 Alpha virt. eigenvalues --    2.18310   2.21694   2.22367   2.24632   2.25719
 Alpha virt. eigenvalues --    2.26367   2.27150   2.30254   2.32649   2.34883
 Alpha virt. eigenvalues --    2.36505   2.37838   2.39503   2.39597   2.41102
 Alpha virt. eigenvalues --    2.41890   2.43477   2.47400   2.47931   2.48889
 Alpha virt. eigenvalues --    2.49018   2.49459   2.51106   2.53255   2.53617
 Alpha virt. eigenvalues --    2.55827   2.56571   2.57537   2.58110   2.59346
 Alpha virt. eigenvalues --    2.61616   2.62864   2.64021   2.64801   2.66218
 Alpha virt. eigenvalues --    2.66554   2.66757   2.68090   2.68276   2.69756
 Alpha virt. eigenvalues --    2.70434   2.70930   2.72240   2.73533   2.75725
 Alpha virt. eigenvalues --    2.77566   2.78331   2.82186   2.82949   2.84304
 Alpha virt. eigenvalues --    2.85330   2.86568   2.87233   2.88098   2.89360
 Alpha virt. eigenvalues --    2.90114   2.92163   2.93394   2.98578   3.01306
 Alpha virt. eigenvalues --    3.02706   3.02935   3.03779   3.05648   3.06440
 Alpha virt. eigenvalues --    3.11867   3.17349   3.19160   3.22534   3.24742
 Alpha virt. eigenvalues --    3.28369   3.31834   3.37194   3.37489   3.38893
 Alpha virt. eigenvalues --    3.39649   3.40326   3.44446   3.46299   3.48745
 Alpha virt. eigenvalues --    3.54938   3.57371   3.58912   3.60420   3.60982
 Alpha virt. eigenvalues --    3.61713   3.62306   3.64056   3.95573   3.99285
 Alpha virt. eigenvalues --    4.37906   4.41429   4.42411   4.46380   4.46773
 Alpha virt. eigenvalues --    4.51979   4.55638   4.59407   4.61451   4.64001
 Alpha virt. eigenvalues --    4.64752   4.73204   4.74766   4.79812   4.85811
 Alpha virt. eigenvalues --    4.98019   5.01072
  Beta  occ. eigenvalues --  -14.46562 -14.46555 -10.36409 -10.33324 -10.33238
  Beta  occ. eigenvalues --  -10.32192 -10.31258 -10.31221 -10.30729 -10.30728
  Beta  occ. eigenvalues --  -10.30691 -10.30675 -10.30671 -10.30661 -10.30574
  Beta  occ. eigenvalues --  -10.30514 -10.30450  -1.08957  -0.98998  -0.96535
  Beta  occ. eigenvalues --   -0.94614  -0.87194  -0.84906  -0.84306  -0.83551
  Beta  occ. eigenvalues --   -0.81112  -0.76157  -0.73440  -0.70537  -0.68506
  Beta  occ. eigenvalues --   -0.67615  -0.66627  -0.60809  -0.59765  -0.58091
  Beta  occ. eigenvalues --   -0.57668  -0.55968  -0.53470  -0.53425  -0.52219
  Beta  occ. eigenvalues --   -0.51782  -0.51476  -0.50927  -0.50555  -0.48787
  Beta  occ. eigenvalues --   -0.47683  -0.46764  -0.46671  -0.45280  -0.44945
  Beta  occ. eigenvalues --   -0.43711  -0.42782  -0.41832  -0.41683  -0.36607
  Beta  occ. eigenvalues --   -0.34792  -0.33233  -0.32619  -0.30245  -0.29016
  Beta virt. eigenvalues --    0.04388   0.05300   0.05372   0.06259   0.06984
  Beta virt. eigenvalues --    0.07905   0.08348   0.08761   0.08965   0.09647
  Beta virt. eigenvalues --    0.10365   0.10633   0.10829   0.11058   0.11381
  Beta virt. eigenvalues --    0.11959   0.13105   0.13402   0.13572   0.14217
  Beta virt. eigenvalues --    0.14584   0.15186   0.15781   0.16679   0.16918
  Beta virt. eigenvalues --    0.17324   0.17578   0.18534   0.18843   0.19679
  Beta virt. eigenvalues --    0.19785   0.20017   0.20725   0.20797   0.21186
  Beta virt. eigenvalues --    0.21301   0.21823   0.21993   0.22689   0.23283
  Beta virt. eigenvalues --    0.23528   0.23598   0.23931   0.24045   0.24845
  Beta virt. eigenvalues --    0.24900   0.25417   0.25805   0.25963   0.26578
  Beta virt. eigenvalues --    0.26896   0.27211   0.27518   0.27898   0.28445
  Beta virt. eigenvalues --    0.28734   0.29009   0.29263   0.29611   0.29814
  Beta virt. eigenvalues --    0.30642   0.30700   0.31028   0.31203   0.31275
  Beta virt. eigenvalues --    0.32491   0.32669   0.33081   0.33565   0.33658
  Beta virt. eigenvalues --    0.34224   0.34590   0.34692   0.35075   0.35280
  Beta virt. eigenvalues --    0.36202   0.36570   0.37001   0.37300   0.37559
  Beta virt. eigenvalues --    0.37636   0.39626   0.40005   0.40458   0.41244
  Beta virt. eigenvalues --    0.41568   0.42031   0.43284   0.43636   0.44124
  Beta virt. eigenvalues --    0.45258   0.45522   0.46537   0.46780   0.47137
  Beta virt. eigenvalues --    0.49137   0.49514   0.49820   0.52448   0.52531
  Beta virt. eigenvalues --    0.53962   0.54325   0.54871   0.61128   0.66636
  Beta virt. eigenvalues --    0.67794   0.70038   0.72121   0.72479   0.74167
  Beta virt. eigenvalues --    0.76410   0.77610   0.77811   0.78207   0.79080
  Beta virt. eigenvalues --    0.79261   0.80350   0.81433   0.81909   0.82515
  Beta virt. eigenvalues --    0.83156   0.83372   0.83877   0.85209   0.85284
  Beta virt. eigenvalues --    0.85689   0.86331   0.87338   0.89807   0.89981
  Beta virt. eigenvalues --    0.90044   0.91741   0.92411   0.92862   0.94573
  Beta virt. eigenvalues --    0.95062   0.95851   0.97172   0.97376   0.99266
  Beta virt. eigenvalues --    1.00143   1.02253   1.02848   1.03518   1.03668
  Beta virt. eigenvalues --    1.03971   1.04655   1.05730   1.07158   1.08523
  Beta virt. eigenvalues --    1.08673   1.10073   1.10571   1.11062   1.12273
  Beta virt. eigenvalues --    1.12355   1.15244   1.15969   1.17096   1.18846
  Beta virt. eigenvalues --    1.19759   1.21049   1.22123   1.22725   1.23545
  Beta virt. eigenvalues --    1.23595   1.24240   1.25908   1.25949   1.27388
  Beta virt. eigenvalues --    1.28624   1.29109   1.31480   1.33172   1.33714
  Beta virt. eigenvalues --    1.35330   1.35500   1.35886   1.37444   1.40400
  Beta virt. eigenvalues --    1.41283   1.41928   1.43130   1.45687   1.47565
  Beta virt. eigenvalues --    1.48618   1.49328   1.50093   1.50460   1.51559
  Beta virt. eigenvalues --    1.51865   1.52732   1.53167   1.54516   1.56631
  Beta virt. eigenvalues --    1.61347   1.61730   1.63734   1.65265   1.71557
  Beta virt. eigenvalues --    1.72074   1.77625   1.81350   1.85504   1.88109
  Beta virt. eigenvalues --    1.89698   1.91591   1.91956   1.92795   1.93292
  Beta virt. eigenvalues --    1.94074   1.95088   1.96530   1.99309   2.00294
  Beta virt. eigenvalues --    2.00457   2.00845   2.02485   2.03816   2.05101
  Beta virt. eigenvalues --    2.05527   2.06372   2.07581   2.08313   2.09049
  Beta virt. eigenvalues --    2.09152   2.10262   2.10499   2.11860   2.14126
  Beta virt. eigenvalues --    2.14653   2.14842   2.16565   2.17460   2.18168
  Beta virt. eigenvalues --    2.18310   2.21694   2.22367   2.24632   2.25719
  Beta virt. eigenvalues --    2.26367   2.27150   2.30254   2.32649   2.34883
  Beta virt. eigenvalues --    2.36505   2.37838   2.39503   2.39597   2.41102
  Beta virt. eigenvalues --    2.41890   2.43477   2.47400   2.47931   2.48889
  Beta virt. eigenvalues --    2.49018   2.49459   2.51106   2.53255   2.53617
  Beta virt. eigenvalues --    2.55827   2.56571   2.57537   2.58110   2.59346
  Beta virt. eigenvalues --    2.61616   2.62864   2.64021   2.64801   2.66218
  Beta virt. eigenvalues --    2.66554   2.66757   2.68090   2.68276   2.69756
  Beta virt. eigenvalues --    2.70434   2.70930   2.72240   2.73533   2.75725
  Beta virt. eigenvalues --    2.77566   2.78331   2.82186   2.82949   2.84304
  Beta virt. eigenvalues --    2.85330   2.86568   2.87233   2.88098   2.89360
  Beta virt. eigenvalues --    2.90114   2.92163   2.93394   2.98578   3.01306
  Beta virt. eigenvalues --    3.02706   3.02935   3.03779   3.05648   3.06440
  Beta virt. eigenvalues --    3.11867   3.17349   3.19160   3.22534   3.24742
  Beta virt. eigenvalues --    3.28369   3.31834   3.37194   3.37489   3.38893
  Beta virt. eigenvalues --    3.39649   3.40326   3.44446   3.46299   3.48745
  Beta virt. eigenvalues --    3.54938   3.57371   3.58912   3.60420   3.60982
  Beta virt. eigenvalues --    3.61713   3.62306   3.64056   3.95573   3.99285
  Beta virt. eigenvalues --    4.37906   4.41429   4.42411   4.46380   4.46773
  Beta virt. eigenvalues --    4.51979   4.55638   4.59407   4.61451   4.64001
  Beta virt. eigenvalues --    4.64752   4.73204   4.74766   4.79812   4.85811
  Beta virt. eigenvalues --    4.98019   5.01072
          Condensed to atoms (all electrons):
               1          2          3          4          5          6
     1  C   19.979063  -0.939121  -0.139500  -0.273347  -0.899167  -0.267422
     2  N   -0.939121   7.856995  -0.781611   0.622566  -0.374591  -0.497603
     3  C   -0.139500  -0.781611  14.650631  -3.024787   0.563670   1.298107
     4  C   -0.273347   0.622566  -3.024787  14.482112  -0.745723  -5.229703
     5  N   -0.899167  -0.374591   0.563670  -0.745723   7.890868   0.138185
     6  C   -0.267422  -0.497603   1.298107  -5.229703   0.138185  10.380225
     7  C   -0.085314   0.118583  -1.130532   0.634580  -0.062393   0.084183
     8  C   -0.066238  -0.067213   0.592024  -1.053610   0.106225   0.477280
     9  C   -0.326114   0.152208  -5.194614   1.149540  -0.486285   0.510220
    10  C  -12.477725   0.826790   0.850598   0.956141   0.768760  -0.941107
    11  C    2.514261  -0.595190   1.206560  -1.862149   0.495828   0.901747
    12  C   -1.633085   0.015142  -0.089891  -0.151749   0.157351  -0.056155
    13  C    0.118615  -0.004855  -0.012318  -0.012794  -0.004361   0.006008
    14  C   -1.588061   0.159765  -0.180379  -0.061932   0.010828  -0.039193
    15  C    2.261184   0.435939  -1.925594   1.191224  -0.629323  -0.694509
    16  C   -0.337091   0.108245  -0.045880  -0.440678   0.253351   0.130543
    17  C   -0.373260   0.267870  -0.476100  -0.074116   0.133790  -0.130407
    18  H    0.225489  -0.040764   0.019957   0.010588  -0.038384   0.008185
    19  H    0.001020  -0.000394   0.022676   0.056316   0.001850   0.249865
    20  H    0.001535  -0.000077   0.005292   0.006483   0.000417   0.010471
    21  H    0.001216   0.000401   0.005595   0.003416  -0.000059  -0.002029
    22  H    0.001583   0.002909   0.047241   0.028406  -0.000595  -0.031902
    23  H    0.004069   0.004753   0.006755  -0.003939   0.014027  -0.000424
    24  H   -0.007416  -0.000001  -0.000121   0.000778   0.000707  -0.000010
    25  H    0.002027  -0.000058  -0.000039  -0.000037  -0.000056   0.000003
    26  H   -0.006634   0.000732   0.000814  -0.000097  -0.000003   0.000012
    27  H   -0.012239   0.014349  -0.004397   0.005980   0.004639  -0.000883
    28  H   -0.039574  -0.012602   0.030984   0.029979  -0.045282   0.001352
    29  H   -0.043315   0.047910  -0.062017   0.088676  -0.086494  -0.076323
    30  H    0.065943  -0.009271  -0.010867  -0.067885  -0.054496   0.056412
    31  H   -0.041109  -0.084993   0.090117  -0.066419   0.054729  -0.001333
    32  H   -0.039742  -0.044773   0.034863   0.033255  -0.014451  -0.001365
    33  H    0.068558  -0.054717  -0.073854  -0.013507  -0.010356   0.006397
               7          8          9         10         11         12
     1  C   -0.085314  -0.066238  -0.326114 -12.477725   2.514261  -1.633085
     2  N    0.118583  -0.067213   0.152208   0.826790  -0.595190   0.015142
     3  C   -1.130532   0.592024  -5.194614   0.850598   1.206560  -0.089891
     4  C    0.634580  -1.053610   1.149540   0.956141  -1.862149  -0.151749
     5  N   -0.062393   0.106225  -0.486285   0.768760   0.495828   0.157351
     6  C    0.084183   0.477280   0.510220  -0.941107   0.901747  -0.056155
     7  C    5.653389   0.109211   0.514626  -0.020239  -0.049901   0.001378
     8  C    0.109211   5.600793   0.138490  -0.037631   0.066848   0.000850
     9  C    0.514626   0.138490  10.288740  -0.863170  -0.738580  -0.027368
    10  C   -0.020239  -0.037631  -0.863170  24.884840  -4.847720   1.227560
    11  C   -0.049901   0.066848  -0.738580  -4.847720  21.392951  -2.635904
    12  C    0.001378   0.000850  -0.027368   1.227560  -2.635904   7.842828
    13  C    0.000213   0.000312   0.005420  -0.834440   0.158445   0.553232
    14  C    0.001825   0.000502  -0.048277   1.113301   0.251171   0.269333
    15  C    0.072144  -0.044089   0.971604  -4.433046 -10.512028   0.365331
    16  C    0.011454   0.034520  -0.120092  -0.081726   0.385108  -0.015959
    17  C    0.037902   0.018621   0.115070  -0.048224  -0.241696   0.072629
    18  H    0.000521   0.000642   0.006384   0.058126  -0.029981   0.027287
    19  H    0.014128   0.005427  -0.028854   0.002968   0.000577   0.000007
    20  H    0.291931   0.017490  -0.003633  -0.000227   0.000091   0.000005
    21  H    0.014950   0.295459   0.011336  -0.000263  -0.000007  -0.000001
    22  H    0.007210   0.009198   0.257415   0.002871  -0.000245   0.000008
    23  H   -0.000021   0.000162  -0.001009   0.143887   0.203337  -0.058756
    24  H    0.000001  -0.000000   0.000015   0.024563   0.005047   0.290145
    25  H   -0.000000  -0.000000   0.000003  -0.004426  -0.002970   0.016507
    26  H   -0.000000   0.000001  -0.000006   0.022124   0.003436  -0.004193
    27  H    0.000159  -0.000082  -0.000588   0.150714   0.016582   0.008932
    28  H   -0.003547   0.000416  -0.001491   0.096556  -0.031547  -0.030972
    29  H    0.005011  -0.002639   0.001805   0.065972  -0.063862  -0.000006
    30  H    0.003767   0.000769   0.004136  -0.074252   0.040580   0.000408
    31  H   -0.003348   0.005311  -0.086212   0.069818   0.059845   0.006869
    32  H    0.000460  -0.003783   0.001603   0.092093  -0.018292   0.000010
    33  H    0.000926   0.005915   0.064459  -0.079898  -0.013525  -0.001667
              13         14         15         16         17         18
     1  C    0.118615  -1.588061   2.261184  -0.337091  -0.373260   0.225489
     2  N   -0.004855   0.159765   0.435939   0.108245   0.267870  -0.040764
     3  C   -0.012318  -0.180379  -1.925594  -0.045880  -0.476100   0.019957
     4  C   -0.012794  -0.061932   1.191224  -0.440678  -0.074116   0.010588
     5  N   -0.004361   0.010828  -0.629323   0.253351   0.133790  -0.038384
     6  C    0.006008  -0.039193  -0.694509   0.130543  -0.130407   0.008185
     7  C    0.000213   0.001825   0.072144   0.011454   0.037902   0.000521
     8  C    0.000312   0.000502  -0.044089   0.034520   0.018621   0.000642
     9  C    0.005420  -0.048277   0.971604  -0.120092   0.115070   0.006384
    10  C   -0.834440   1.113301  -4.433046  -0.081726  -0.048224   0.058126
    11  C    0.158445   0.251171 -10.512028   0.385108  -0.241696  -0.029981
    12  C    0.553232   0.269333   0.365331  -0.015959   0.072629   0.027287
    13  C    5.226413   0.579190   0.091731   0.001007   0.000190  -0.002964
    14  C    0.579190   7.875250  -2.507379   0.066970  -0.009499   0.026100
    15  C    0.091731  -2.507379  21.052831  -0.261390   0.361771  -0.031984
    16  C    0.001007   0.066970  -0.261390   5.356191  -0.057911   0.014916
    17  C    0.000190  -0.009499   0.361771  -0.057911   5.389478   0.015313
    18  H   -0.002964   0.026100  -0.031984   0.014916   0.015313   0.523672
    19  H   -0.000003   0.000010  -0.000202  -0.000190  -0.000016  -0.000005
    20  H    0.000000  -0.000001  -0.000012  -0.000086   0.000014   0.000000
    21  H    0.000000   0.000005   0.000086   0.000024  -0.000146   0.000000
    22  H   -0.000001   0.000011   0.000761  -0.000053   0.000566  -0.000006
    23  H   -0.023931   0.009351   0.015533  -0.001444  -0.000206   0.000193
    24  H    0.014183  -0.004172   0.004428  -0.000463   0.000094  -0.000000
    25  H    0.301532   0.017177  -0.001729  -0.000048  -0.000045   0.000000
    26  H    0.014840   0.287904   0.009190   0.000089  -0.000434   0.000000
    27  H   -0.021820  -0.052812   0.205653  -0.000069  -0.001547   0.000202
    28  H   -0.006781   0.000539  -0.014727   0.383832   0.002014   0.000198
    29  H    0.000136   0.007072   0.054282   0.423115  -0.015257  -0.000331
    30  H    0.000656  -0.001664  -0.012444   0.421320  -0.001545  -0.000084
    31  H    0.000044   0.000096  -0.072804  -0.013695   0.426737  -0.000336
    32  H   -0.006474  -0.033427  -0.022002   0.002009   0.379398   0.000170
    33  H    0.000708   0.000864   0.044883  -0.001918   0.417878  -0.000090
              19         20         21         22         23         24
     1  C    0.001020   0.001535   0.001216   0.001583   0.004069  -0.007416
     2  N   -0.000394  -0.000077   0.000401   0.002909   0.004753  -0.000001
     3  C    0.022676   0.005292   0.005595   0.047241   0.006755  -0.000121
     4  C    0.056316   0.006483   0.003416   0.028406  -0.003939   0.000778
     5  N    0.001850   0.000417  -0.000059  -0.000595   0.014027   0.000707
     6  C    0.249865   0.010471  -0.002029  -0.031902  -0.000424  -0.000010
     7  C    0.014128   0.291931   0.014950   0.007210  -0.000021   0.000001
     8  C    0.005427   0.017490   0.295459   0.009198   0.000162  -0.000000
     9  C   -0.028854  -0.003633   0.011336   0.257415  -0.001009   0.000015
    10  C    0.002968  -0.000227  -0.000263   0.002871   0.143887   0.024563
    11  C    0.000577   0.000091  -0.000007  -0.000245   0.203337   0.005047
    12  C    0.000007   0.000005  -0.000001   0.000008  -0.058756   0.290145
    13  C   -0.000003   0.000000   0.000000  -0.000001  -0.023931   0.014183
    14  C    0.000010  -0.000001   0.000005   0.000011   0.009351  -0.004172
    15  C   -0.000202  -0.000012   0.000086   0.000761   0.015533   0.004428
    16  C   -0.000190  -0.000086   0.000024  -0.000053  -0.001444  -0.000463
    17  C   -0.000016   0.000014  -0.000146   0.000566  -0.000206   0.000094
    18  H   -0.000005   0.000000   0.000000  -0.000006   0.000193  -0.000000
    19  H    0.481987  -0.003084  -0.000108   0.000011   0.000000   0.000000
    20  H   -0.003084   0.487651  -0.003458  -0.000108  -0.000000  -0.000000
    21  H   -0.000108  -0.003458   0.487337  -0.003052   0.000000   0.000000
    22  H    0.000011  -0.000108  -0.003052   0.481431   0.000000  -0.000000
    23  H    0.000000  -0.000000   0.000000   0.000000   0.507969  -0.004154
    24  H    0.000000  -0.000000   0.000000  -0.000000  -0.004154   0.487420
    25  H   -0.000000   0.000000   0.000000  -0.000000  -0.000117  -0.003501
    26  H   -0.000000   0.000000  -0.000000   0.000000   0.000012  -0.000117
    27  H    0.000000   0.000000  -0.000000   0.000000  -0.000122   0.000012
    28  H   -0.000026  -0.000000  -0.000000  -0.000000   0.001830  -0.000003
    29  H    0.000067  -0.000000   0.000000   0.000004   0.000207  -0.000000
    30  H    0.000028   0.000003  -0.000000   0.000000   0.000184  -0.000000
    31  H    0.000006   0.000000  -0.000000   0.000074  -0.000005   0.000000
    32  H   -0.000000  -0.000000  -0.000000  -0.000024  -0.000001   0.000000
    33  H   -0.000000  -0.000000   0.000002   0.000000   0.000000   0.000000
              25         26         27         28         29         30
     1  C    0.002027  -0.006634  -0.012239  -0.039574  -0.043315   0.065943
     2  N   -0.000058   0.000732   0.014349  -0.012602   0.047910  -0.009271
     3  C   -0.000039   0.000814  -0.004397   0.030984  -0.062017  -0.010867
     4  C   -0.000037  -0.000097   0.005980   0.029979   0.088676  -0.067885
     5  N   -0.000056  -0.000003   0.004639  -0.045282  -0.086494  -0.054496
     6  C    0.000003   0.000012  -0.000883   0.001352  -0.076323   0.056412
     7  C   -0.000000  -0.000000   0.000159  -0.003547   0.005011   0.003767
     8  C   -0.000000   0.000001  -0.000082   0.000416  -0.002639   0.000769
     9  C    0.000003  -0.000006  -0.000588  -0.001491   0.001805   0.004136
    10  C   -0.004426   0.022124   0.150714   0.096556   0.065972  -0.074252
    11  C   -0.002970   0.003436   0.016582  -0.031547  -0.063862   0.040580
    12  C    0.016507  -0.004193   0.008932  -0.030972  -0.000006   0.000408
    13  C    0.301532   0.014840  -0.021820  -0.006781   0.000136   0.000656
    14  C    0.017177   0.287904  -0.052812   0.000539   0.007072  -0.001664
    15  C   -0.001729   0.009190   0.205653  -0.014727   0.054282  -0.012444
    16  C   -0.000048   0.000089  -0.000069   0.383832   0.423115   0.421320
    17  C   -0.000045  -0.000434  -0.001547   0.002014  -0.015257  -0.001545
    18  H    0.000000   0.000000   0.000202   0.000198  -0.000331  -0.000084
    19  H   -0.000000  -0.000000   0.000000  -0.000026   0.000067   0.000028
    20  H    0.000000   0.000000   0.000000  -0.000000  -0.000000   0.000003
    21  H    0.000000  -0.000000  -0.000000  -0.000000   0.000000  -0.000000
    22  H   -0.000000   0.000000   0.000000  -0.000000   0.000004   0.000000
    23  H   -0.000117   0.000012  -0.000122   0.001830   0.000207   0.000184
    24  H   -0.003501  -0.000117   0.000012  -0.000003  -0.000000  -0.000000
    25  H    0.487983  -0.003504  -0.000117  -0.000000  -0.000000  -0.000000
    26  H   -0.003504   0.487407  -0.004160   0.000000   0.000000   0.000000
    27  H   -0.000117  -0.004160   0.507304  -0.000001  -0.000006   0.000000
    28  H   -0.000000   0.000000  -0.000001   0.526729  -0.034187  -0.019690
    29  H   -0.000000   0.000000  -0.000006  -0.034187   0.569398  -0.034122
    30  H   -0.000000   0.000000   0.000000  -0.019690  -0.034122   0.514488
    31  H   -0.000000  -0.000000   0.000206   0.000020   0.001076   0.000143
    32  H   -0.000000  -0.000003   0.001685   0.000022   0.000032   0.000000
    33  H   -0.000000  -0.000000   0.000177  -0.000000   0.000137  -0.000003
              31         32         33
     1  C   -0.041109  -0.039742   0.068558
     2  N   -0.084993  -0.044773  -0.054717
     3  C    0.090117   0.034863  -0.073854
     4  C   -0.066419   0.033255  -0.013507
     5  N    0.054729  -0.014451  -0.010356
     6  C   -0.001333  -0.001365   0.006397
     7  C   -0.003348   0.000460   0.000926
     8  C    0.005311  -0.003783   0.005915
     9  C   -0.086212   0.001603   0.064459
    10  C    0.069818   0.092093  -0.079898
    11  C    0.059845  -0.018292  -0.013525
    12  C    0.006869   0.000010  -0.001667
    13  C    0.000044  -0.006474   0.000708
    14  C    0.000096  -0.033427   0.000864
    15  C   -0.072804  -0.022002   0.044883
    16  C   -0.013695   0.002009  -0.001918
    17  C    0.426737   0.379398   0.417878
    18  H   -0.000336   0.000170  -0.000090
    19  H    0.000006  -0.000000  -0.000000
    20  H    0.000000  -0.000000  -0.000000
    21  H   -0.000000  -0.000000   0.000002
    22  H    0.000074  -0.000024   0.000000
    23  H   -0.000005  -0.000001   0.000000
    24  H    0.000000   0.000000   0.000000
    25  H   -0.000000  -0.000000  -0.000000
    26  H   -0.000000  -0.000003  -0.000000
    27  H    0.000206   0.001685   0.000177
    28  H    0.000020   0.000022  -0.000000
    29  H    0.001076   0.000032   0.000137
    30  H    0.000143   0.000000  -0.000003
    31  H    0.569712  -0.033688  -0.034292
    32  H   -0.033688   0.524878  -0.019598
    33  H   -0.034292  -0.019598   0.514705
          Atomic-Atomic Spin Densities.
               1          2          3          4          5          6
     1  C    0.000000  -0.000000  -0.000000  -0.000000  -0.000000   0.000000
     2  N   -0.000000   0.000000   0.000000  -0.000000   0.000000   0.000000
     3  C   -0.000000   0.000000  -0.000000   0.000000  -0.000000  -0.000000
     4  C   -0.000000  -0.000000   0.000000  -0.000000   0.000000   0.000000
     5  N   -0.000000   0.000000  -0.000000   0.000000  -0.000000  -0.000000
     6  C    0.000000   0.000000  -0.000000   0.000000  -0.000000  -0.000000
     7  C    0.000000  -0.000000   0.000000  -0.000000   0.000000   0.000000
     8  C   -0.000000   0.000000  -0.000000   0.000000  -0.000000  -0.000000
     9  C   -0.000000  -0.000000   0.000000  -0.000000   0.000000   0.000000
    10  C   -0.000000   0.000000  -0.000000   0.000000   0.000000  -0.000000
    11  C    0.000000  -0.000000  -0.000000   0.000000  -0.000000   0.000000
    12  C   -0.000000   0.000000   0.000000   0.000000   0.000000   0.000000
    13  C    0.000000  -0.000000   0.000000  -0.000000  -0.000000   0.000000
    14  C   -0.000000   0.000000  -0.000000   0.000000  -0.000000  -0.000000
    15  C   -0.000000   0.000000   0.000000  -0.000000   0.000000  -0.000000
    16  C    0.000000   0.000000  -0.000000   0.000000  -0.000000  -0.000000
    17  C   -0.000000   0.000000   0.000000  -0.000000   0.000000   0.000000
    18  H   -0.000000   0.000000   0.000000  -0.000000  -0.000000  -0.000000
    19  H   -0.000000   0.000000  -0.000000   0.000000  -0.000000  -0.000000
    20  H   -0.000000  -0.000000  -0.000000  -0.000000   0.000000   0.000000
    21  H    0.000000  -0.000000   0.000000   0.000000   0.000000   0.000000
    22  H   -0.000000   0.000000  -0.000000   0.000000  -0.000000  -0.000000
    23  H   -0.000000   0.000000  -0.000000   0.000000   0.000000  -0.000000
    24  H    0.000000  -0.000000   0.000000  -0.000000  -0.000000  -0.000000
    25  H    0.000000  -0.000000  -0.000000  -0.000000  -0.000000   0.000000
    26  H   -0.000000   0.000000   0.000000  -0.000000   0.000000   0.000000
    27  H    0.000000   0.000000   0.000000   0.000000  -0.000000  -0.000000
    28  H   -0.000000   0.000000  -0.000000   0.000000   0.000000  -0.000000
    29  H   -0.000000   0.000000   0.000000  -0.000000  -0.000000  -0.000000
    30  H    0.000000  -0.000000  -0.000000  -0.000000   0.000000   0.000000
    31  H    0.000000  -0.000000  -0.000000   0.000000  -0.000000  -0.000000
    32  H   -0.000000   0.000000   0.000000  -0.000000   0.000000   0.000000
    33  H   -0.000000   0.000000   0.000000  -0.000000   0.000000  -0.000000
               7          8          9         10         11         12
     1  C    0.000000  -0.000000  -0.000000  -0.000000   0.000000  -0.000000
     2  N   -0.000000   0.000000  -0.000000   0.000000  -0.000000   0.000000
     3  C    0.000000  -0.000000   0.000000  -0.000000  -0.000000   0.000000
     4  C   -0.000000   0.000000  -0.000000   0.000000   0.000000   0.000000
     5  N    0.000000  -0.000000   0.000000   0.000000  -0.000000   0.000000
     6  C    0.000000  -0.000000   0.000000  -0.000000   0.000000   0.000000
     7  C   -0.000000   0.000000  -0.000000  -0.000000   0.000000  -0.000000
     8  C    0.000000  -0.000000   0.000000  -0.000000  -0.000000   0.000000
     9  C   -0.000000   0.000000  -0.000000   0.000000  -0.000000   0.000000
    10  C   -0.000000  -0.000000   0.000000   0.000000  -0.000000   0.000000
    11  C    0.000000  -0.000000  -0.000000  -0.000000   0.000000  -0.000000
    12  C   -0.000000   0.000000   0.000000   0.000000  -0.000000   0.000000
    13  C   -0.000000   0.000000  -0.000000  -0.000000   0.000000  -0.000000
    14  C    0.000000   0.000000   0.000000  -0.000000  -0.000000   0.000000
    15  C   -0.000000   0.000000  -0.000000   0.000000  -0.000000   0.000000
    16  C    0.000000  -0.000000   0.000000  -0.000000  -0.000000  -0.000000
    17  C   -0.000000   0.000000  -0.000000   0.000000  -0.000000   0.000000
    18  H   -0.000000   0.000000   0.000000   0.000000  -0.000000   0.000000
    19  H    0.000000  -0.000000   0.000000  -0.000000  -0.000000  -0.000000
    20  H   -0.000000   0.000000   0.000000  -0.000000   0.000000   0.000000
    21  H   -0.000000   0.000000  -0.000000  -0.000000   0.000000  -0.000000
    22  H    0.000000  -0.000000   0.000000  -0.000000  -0.000000  -0.000000
    23  H    0.000000  -0.000000   0.000000   0.000000  -0.000000   0.000000
    24  H   -0.000000   0.000000  -0.000000  -0.000000   0.000000  -0.000000
    25  H   -0.000000   0.000000  -0.000000   0.000000   0.000000  -0.000000
    26  H   -0.000000   0.000000   0.000000   0.000000   0.000000   0.000000
    27  H    0.000000  -0.000000   0.000000  -0.000000  -0.000000  -0.000000
    28  H    0.000000  -0.000000   0.000000   0.000000  -0.000000   0.000000
    29  H   -0.000000   0.000000  -0.000000   0.000000  -0.000000   0.000000
    30  H    0.000000   0.000000  -0.000000  -0.000000   0.000000  -0.000000
    31  H    0.000000  -0.000000   0.000000  -0.000000   0.000000  -0.000000
    32  H   -0.000000   0.000000  -0.000000   0.000000  -0.000000   0.000000
    33  H   -0.000000   0.000000  -0.000000   0.000000  -0.000000   0.000000
              13         14         15         16         17         18
     1  C    0.000000  -0.000000  -0.000000   0.000000  -0.000000  -0.000000
     2  N   -0.000000   0.000000   0.000000   0.000000   0.000000   0.000000
     3  C    0.000000  -0.000000   0.000000  -0.000000   0.000000   0.000000
     4  C   -0.000000   0.000000  -0.000000   0.000000  -0.000000  -0.000000
     5  N   -0.000000  -0.000000   0.000000  -0.000000   0.000000  -0.000000
     6  C    0.000000  -0.000000  -0.000000  -0.000000   0.000000  -0.000000
     7  C   -0.000000   0.000000  -0.000000   0.000000  -0.000000  -0.000000
     8  C    0.000000   0.000000   0.000000  -0.000000   0.000000   0.000000
     9  C   -0.000000   0.000000  -0.000000   0.000000  -0.000000   0.000000
    10  C   -0.000000  -0.000000   0.000000  -0.000000   0.000000   0.000000
    11  C    0.000000  -0.000000  -0.000000  -0.000000  -0.000000  -0.000000
    12  C   -0.000000   0.000000   0.000000  -0.000000   0.000000   0.000000
    13  C    0.000000   0.000000  -0.000000   0.000000  -0.000000  -0.000000
    14  C    0.000000   0.000000   0.000000  -0.000000   0.000000   0.000000
    15  C   -0.000000   0.000000  -0.000000   0.000000   0.000000   0.000000
    16  C    0.000000  -0.000000   0.000000  -0.000000  -0.000000  -0.000000
    17  C   -0.000000   0.000000   0.000000  -0.000000   0.000000   0.000000
    18  H   -0.000000   0.000000   0.000000  -0.000000   0.000000   0.000000
    19  H    0.000000  -0.000000   0.000000  -0.000000   0.000000  -0.000000
    20  H    0.000000  -0.000000  -0.000000  -0.000000  -0.000000  -0.000000
    21  H    0.000000  -0.000000  -0.000000   0.000000   0.000000  -0.000000
    22  H    0.000000   0.000000   0.000000  -0.000000  -0.000000   0.000000
    23  H   -0.000000   0.000000   0.000000  -0.000000   0.000000   0.000000
    24  H    0.000000  -0.000000   0.000000   0.000000  -0.000000  -0.000000
    25  H   -0.000000   0.000000  -0.000000  -0.000000  -0.000000  -0.000000
    26  H   -0.000000   0.000000  -0.000000   0.000000   0.000000   0.000000
    27  H    0.000000  -0.000000   0.000000  -0.000000  -0.000000  -0.000000
    28  H    0.000000   0.000000   0.000000   0.000000   0.000000   0.000000
    29  H   -0.000000   0.000000   0.000000  -0.000000   0.000000   0.000000
    30  H    0.000000  -0.000000  -0.000000  -0.000000  -0.000000  -0.000000
[...]
 24,-0.00000416,-0.00001144,0.00002001,0.00000726,0.00000850,-0.0000206
 4,0.00001206,0.00001389,-0.00001875,0.30938640,0.00077962,-0.00010604,
 0.00007747,-0.00011559,-0.00009788,-0.00004800,-0.00010560,-0.00015448
 ,0.00013435,-0.00037789,0.00083569,-0.00059581,0.00142719,-0.00044042,
 -0.00263630,-0.00031556,0.00005177,0.00003187,0.00019423,-0.00028127,0
 .00000053,0.00014669,0.00020076,0.00007179,-0.00023140,0.00005586,0.00
 005358,-0.00024646,-0.00019807,-0.00037477,0.00021056,-0.00008563,0.00
 038984,-0.00017288,-0.00004597,0.00008488,0.00003169,0.00015261,-0.000
 01703,0.00014782,0.00001001,-0.00001591,-0.00007084,-0.00011535,-0.000
 06514,0.09439705,-0.08692610,-0.01578494,0.00009113,0.00006269,0.00022
 671,-0.00001865,0.00001126,0.00001885,0.00005551,0.00004094,-0.0001044
 4,0.00000843,-0.00000700,0.00001146,0.00000349,0.00000741,-0.00001407,
 -0.00000587,0.00000321,-0.00003609,0.00065872,0.00044092,0.00076880,0.
 00002098,-0.00002010,0.00001799,0.00001646,0.00000715,-0.00000898,0.00
 001319,0.00000533,0.00000860,-0.00000385,0.00001682,0.00001484,-0.1026
 6324,0.08579523,0.00105304,-0.00006029,0.00176352,-0.00025548,-0.00055
 648,-0.00027836,0.00166800,-0.00023171,-0.00044508,-0.00121894,-0.0016
 9229,-0.00561746,0.03486642,-0.01008212,-0.01035582,0.00005686,-0.0002
 3880,-0.00003326,0.00012070,-0.00014232,0.00020818,0.00030102,0.000013
 72,-0.00003019,-0.00031170,-0.00036123,0.00019037,-0.00038958,-0.00068
 022,-0.00076579,-0.00200222,-0.00078566,-0.00140650,0.00002519,0.00029
 182,0.00006531,0.00008490,-0.00002121,-0.00002344,-0.00000437,0.000093
 14,0.00000889,-0.00004754,0.00012554,0.00009472,0.03559592,-0.01413648
 ,-0.05582046,-0.00005027,0.00014457,-0.00014665,0.00005316,0.00032928,
 0.00013323,0.00001447,0.00016086,-0.00009982,0.00008051,-0.00001032,-0
 .00000790,0.00003108,-0.00000221,-0.00003080,0.00011286,-0.00008695,-0
 .00003829,-0.00147699,0.00092185,-0.00143808,0.00003517,-0.00002815,0.
 00001930,0.00003643,0.00003069,0.00001609,0.00000290,0.00001753,0.0000
 0224,0.00002777,0.00005840,0.00002304,-0.04504067,0.01772291,0.0681091
 5,0.00008657,0.00043798,-0.00059625,-0.00023798,0.00004045,-0.00045731
 ,-0.00081563,-0.00082287,0.00008939,-0.00031871,-0.00180261,0.00147842
 ,0.00115784,-0.00352446,0.00371746,-0.00031047,0.00008021,-0.00042198,
 0.00007801,-0.00021877,-0.00010768,0.00023382,0.00017540,0.00008266,-0
 .00040361,0.00004131,-0.00008281,0.00002098,0.00004280,0.00008675,0.00
 019403,0.00034291,-0.00003423,-0.00010245,-0.00012806,-0.00000509,-0.0
 0000132,0.00005945,0.00005745,0.00004069,-0.00005404,-0.00003227,-0.00
 004738,-0.00007795,0.00000840,-0.05569890,0.02642668,-0.01445815,0.000
 03689,0.00087369,-0.00004520,-0.00001960,0.00007089,-0.00001986,0.0000
 0241,0.00001661,0.00006011,0.00001909,-0.00000123,0.00001837,0.0000174
 3,0.00000166,-0.00000960,0.00002817,-0.00004677,0.00003203,0.00014512,
 -0.00025008,0.00004883,-0.00000073,0.00000786,-0.00001503,-0.00000923,
 -0.00000698,-0.00000736,0.00000191,-0.00000239,-0.00000538,0.00000348,
 -0.00000416,0.00000443,-0.00130440,0.02624847,-0.01378389,0.05220174,-
 0.00126276,0.00038704,-0.00076444,0.00045304,0.00149348,0.00130620,-0.
 00008952,0.00064836,0.00049798,0.00021559,0.00162998,-0.00105425,0.000
 93967,0.00854651,0.00018364,-0.00004114,-0.00023295,0.00030517,-0.0000
 1117,0.00009086,0.00012845,-0.00028769,-0.00006028,-0.00006179,0.00030
 480,0.00002199,0.00005629,-0.00012809,0.00007210,0.00017520,0.00010239
 ,-0.00009771,0.00003421,-0.00007484,-0.00001507,0.00001597,0.00002819,
 0.00007269,0.00001216,0.00009319,0.00002148,-0.00002705,-0.00000315,-0
 .00004407,-0.00001885,0.02623399,-0.24657017,0.10428819,0.00008327,-0.
 00208700,-0.00017967,-0.00002555,0.00006388,0.00022405,-0.00005067,0.0
 0004264,-0.00009503,-0.00003397,-0.00000615,0.00000055,-0.00002819,0.0
 0000725,-0.00000425,-0.00005758,0.00004069,-0.00000343,-0.00010826,0.0
 0013029,-0.00005127,0.00001291,-0.00000944,0.00000378,0.00001224,0.000
 00469,0.00000288,0.00001692,0.00000593,0.00000132,-0.00002167,0.000004
 30,0.00000953,-0.00034825,-0.00865776,0.00416568,-0.03014204,0.2643984
 2,0.00087884,0.00251917,0.00181783,-0.00050760,-0.00147881,0.00036301,
 0.00096119,-0.00049339,-0.00037507,-0.00637216,0.00302975,0.00135200,0
 .00330376,0.02482457,-0.03263950,0.00123692,-0.00032302,0.00038681,-0.
 00013196,0.00016002,0.00010923,0.00040736,-0.00016664,-0.00011257,-0.0
 0027525,0.00006167,-0.00003456,0.00002655,-0.00023685,-0.00029862,0.00
 002260,-0.00005854,0.00006685,-0.00003505,0.00001015,-0.00003097,-0.00
 004326,0.00003568,0.00001142,0.00002116,-0.00005921,-0.00002127,-0.000
 21713,0.00004181,0.00005460,-0.01447831,0.10306520,-0.10262975,0.00008
 409,0.00010584,-0.00126453,-0.00036778,-0.00067146,-0.00021152,-0.0000
 2262,0.00002555,0.00002648,0.00008348,-0.00000897,-0.00001079,0.000024
 71,-0.00001073,-0.00001907,0.00003465,-0.00007011,0.00000836,0.0000556
 6,-0.00001521,-0.00000859,-0.00001673,0.00000733,-0.00000008,-0.000007
 34,-0.00000133,0.00000537,-0.00002347,-0.00000519,-0.00000266,0.000015
 35,-0.00000472,0.00000520,-0.00009033,-0.00425015,0.00349241,0.0132414
 1,-0.11583000,0.12221287,-0.00004414,0.00111826,0.00183642,-0.00007835
 ,-0.00023745,-0.00032364,0.00045013,-0.00047853,-0.00030952,-0.0001765
 5,0.00164932,0.00071834,0.00486986,0.00413217,0.00373051,-0.00068140,0
 .00020998,0.00117116,0.00032901,-0.00046600,0.00004815,0.00031502,0.00
 041484,0.00003284,-0.00055615,0.00004426,0.00012523,0.00001003,-0.0000
 4246,-0.00014932,-0.00025987,0.00037885,-0.00040888,0.00018580,-0.0000
 1766,-0.00011192,-0.00004758,-0.00017530,0.00001305,-0.00018112,0.0000
 0562,0.00001852,0.00013430,0.00013178,0.00006581,-0.17437126,-0.124488
 82,-0.06401151,0.00000597,0.00021399,0.00005555,0.00012865,0.00004750,
 0.00008203,-0.00020651,-0.00005736,-0.00000892,0.00004342,-0.00003388,
 0.00002442,0.00000331,0.00000946,-0.00003948,0.00000745,-0.00001799,0.
 00000893,-0.00007303,-0.00038209,0.00002783,-0.00001930,0.00002194,-0.
 00001453,-0.00002294,-0.00001716,0.00000567,-0.00001383,-0.00000674,-0
 .00001243,0.00000699,-0.00002107,-0.00000273,-0.01628007,-0.02008892,-
 0.00952114,0.00379346,0.00434961,0.00188603,0.18270126,0.00096958,0.00
 169496,0.00023717,0.00022231,0.00018932,0.00020511,-0.00008038,-0.0003
 8789,0.00007519,-0.00096129,0.00043293,-0.00004922,-0.00026987,-0.0009
 0527,-0.00335260,0.00007383,0.00007256,0.00014366,0.00020970,-0.000274
 28,0.00013413,0.00010239,0.00021781,0.00001056,-0.00023429,0.00004100,
 0.00001208,0.00014526,0.00003621,0.00009544,0.00007734,-0.00017233,0.0
 0008963,-0.00002657,0.00001918,0.00003852,-0.00000702,0.00003655,-0.00
 001247,0.00004010,0.00000666,-0.00000351,-0.00006895,-0.00001569,-0.00
 002685,-0.12328981,-0.17073761,-0.06049947,0.00017398,-0.00017303,0.00
 064089,-0.00017826,-0.00018769,-0.00019989,-0.00005196,0.00009650,-0.0
 0009397,-0.00000351,-0.00000191,0.00000800,0.00000066,0.00001959,-0.00
 002999,0.00000206,-0.00000364,0.00000794,0.00004135,0.00007990,0.00003
 494,-0.00000309,-0.00000338,0.00000895,0.00000284,0.00000422,0.0000000
 9,-0.00000502,-0.00000201,0.00000635,0.00000367,0.00000673,0.00000514,
 0.00841123,0.00933145,0.00518536,-0.01893688,-0.01656620,-0.00909900,0
 .13379969,0.17740615,0.00336100,0.00223833,-0.00371080,0.00066138,-0.0
 0118869,-0.00030010,-0.00033375,-0.00069922,0.00013324,-0.00129586,-0.
 00002962,0.00078996,-0.02557025,-0.02474210,-0.02192683,0.00022460,-0.
 00022130,-0.00025891,0.00037594,-0.00021288,-0.00004908,0.00006558,0.0
 0031054,0.00010983,-0.00022317,-0.00000028,-0.00005871,0.00095158,0.00
 011204,-0.00000135,0.00007907,0.00000520,0.00018751,-0.00013822,-0.000
 02491,0.00002330,-0.00005111,0.00011919,0.00003925,0.00010702,-0.00011
 396,-0.00002661,-0.00035095,-0.00005975,0.00009100,-0.05604152,-0.0554
 7757,-0.07485588,0.00016617,0.00016320,-0.00026482,-0.00083835,-0.0009
 2055,-0.00109089,0.00019786,0.00019230,-0.00012280,-0.00000102,-0.0000
 0034,-0.00001838,0.00001575,0.00002109,-0.00000557,0.00001368,-0.00000
 634,-0.00001957,0.00005633,-0.00000912,-0.00004555,-0.00003036,0.00000
 970,-0.00000104,-0.00001230,0.00000257,-0.00000560,-0.00003168,-0.0000
 0657,-0.00000784,0.00002359,0.00000106,-0.00001337,0.00308835,0.004507
 40,0.00226058,0.01053172,0.00912716,0.00617950,0.06498292,0.06705398,0
 .09259895,0.00005792,-0.00006796,-0.00067961,0.00142698,0.00090797,0.0
 0560004,-0.00027507,0.00039337,0.00347569,-0.00064304,0.00096002,-0.00
 022917,-0.00028570,0.00049856,-0.00040802,-0.00039976,0.00004813,-0.00
 008658,0.00023207,-0.00017332,-0.00001852,0.00005123,0.00020919,0.0000
 0930,-0.00021628,0.00020170,-0.00043624,0.00002580,-0.00006145,0.00005
 504,-0.00002471,0.00004126,0.00004787,0.00001474,0.00005832,0.00001303
 ,-0.00000576,-0.00005747,0.00002469,-0.00006659,0.00011167,0.00005418,
 0.00014678,-0.00029246,-0.00025998,0.00105335,-0.00291449,-0.00032355,
 -0.06271683,-0.02139358,-0.04685974,0.00000239,-0.00002969,-0.00007316
 ,0.00003508,0.00002103,0.00005186,0.00001782,0.00000391,-0.00000736,0.
 00002024,-0.00001100,0.00001319,0.00000504,-0.00004890,0.00005225,0.00
 000296,0.00000732,0.00000199,0.00000057,0.00000564,-0.00000397,-0.0000
 0988,0.00001169,-0.00000090,-0.00000210,0.00000225,-0.00001907,0.00013
 555,0.00021156,0.00018060,-0.00000948,0.00002595,-0.00004320,0.0012334
 6,-0.00004630,0.00018150,0.00000465,-0.00008076,0.00003259,0.05891501,
 0.00070998,0.00156989,0.00092653,-0.00078342,0.00595477,0.02716770,0.0
 0254934,0.00167436,0.00244849,-0.00142989,0.00094800,-0.00008187,-0.00
 015838,0.00141415,-0.00111108,-0.00021075,0.00003933,-0.00000281,0.000
 05691,-0.00023975,-0.00002244,0.00014662,0.00027876,-0.00000858,-0.000
 74399,0.00000662,-0.00058393,0.00007392,-0.00007741,-0.00002884,0.0001
 2522,-0.00001137,-0.00003198,-0.00009788,-0.00003459,0.00001580,-0.000
 00071,0.00008453,0.00003402,0.00009310,-0.00001965,-0.00000829,-0.0001
 2994,-0.00003181,-0.00012110,0.00034050,-0.00450082,-0.00001926,-0.021
 54227,-0.09426608,-0.09703482,0.00023240,-0.00029631,-0.00025980,0.000
 03039,-0.00000406,0.00000827,0.00001537,-0.00000883,0.00001051,-0.0000
 1410,-0.00001174,-0.00000153,0.00005971,-0.00001035,0.00007334,0.00001
 198,0.00000048,-0.00000426,-0.00000176,0.00000154,0.00000229,-0.000006
 03,0.00000499,-0.00000134,-0.00000252,-0.00000211,-0.00000315,0.000044
 75,0.00004511,0.00008831,0.00003946,0.00021493,-0.00012524,0.00117954,
 -0.00311450,-0.00123830,-0.00004271,-0.00009897,-0.00012000,0.02655441
 ,0.10299001,0.00134327,-0.00279533,0.00031889,0.00043447,0.00326548,-0
 .03080466,-0.00580352,-0.00223143,0.00102096,0.00044174,0.00116717,-0.
 00000236,-0.00056100,0.00215975,0.00075389,-0.00042096,0.00003838,-0.0
 0006663,0.00048903,0.00006057,-0.00000417,-0.00006574,-0.00005072,-0.0
 0003321,0.00096378,-0.00003005,0.00017915,0.00016041,0.00038265,-0.000
 14918,-0.00018258,-0.00007931,0.00000860,-0.00003632,0.00004984,0.0000
 3249,-0.00005521,0.00001665,0.00001007,0.00002074,-0.00000340,-0.00004
 111,-0.00004468,-0.00000439,0.00004290,0.00039725,-0.00111402,-0.00129
 409,-0.04561836,-0.09495359,-0.24678912,-0.00027508,0.00071993,0.00009
 894,0.00006854,0.00005612,0.00005960,0.00003912,0.00001562,-0.00000341
 ,0.00008825,0.00000535,-0.00000601,0.00001189,-0.00004549,0.00006058,0
 .00002643,0.00000337,0.00000325,-0.00003034,0.00000964,0.00000343,-0.0
 0001349,0.00000158,0.00000464,-0.00002351,-0.00000807,-0.00000691,0.00
 011071,0.00003934,0.00005582,0.00003079,-0.00006777,0.00005077,0.00074
 596,-0.00232944,0.00103832,0.00006168,-0.00041262,0.00020446,0.0490838
 8,0.09913390,0.27723108,-0.00051977,0.00064609,0.00049520,-0.00321985,
 -0.00152040,0.00113411,0.00159725,-0.00070912,0.00076583,-0.00027887,0
 .00012398,0.00033837,0.00007989,-0.00024703,-0.00011223,-0.00001134,-0
 .00003752,-0.00004400,-0.00013661,-0.00009553,-0.00001524,0.00000879,0
 .00000903,0.00002332,0.00018962,-0.00028013,-0.00011437,-0.00021378,0.
 00125514,-0.00053713,0.00045537,-0.00045409,0.00000039,-0.00040286,-0.
 00008924,0.00001056,0.00004139,0.00025026,0.00025749,0.00020550,0.0000
 1456,-0.00021878,-0.00299417,0.00146852,-0.00271865,-0.00008531,0.0001
 6160,0.00001224,-0.30245857,-0.08654387,-0.00569806,0.00000770,-0.0003
 4067,-0.00000875,-0.00003603,-0.00002532,-0.00003757,-0.00002400,-0.00
 000877,-0.00000885,-0.00004766,-0.00000242,0.00000121,0.00002451,0.000
 04682,-0.00006075,0.00001192,0.00000005,-0.00002319,0.00000626,0.00000
 598,-0.00002461,-0.00000565,-0.00000035,0.00002542,0.00002581,0.000003
 27,-0.00003734,-0.00168980,0.00141695,-0.00187281,0.00002091,-0.000025
 20,-0.00002251,-0.00002550,-0.00005600,0.00001383,0.00000872,-0.000031
 99,-0.00001153,-0.00371929,-0.00027476,0.00021720,0.32810276,-0.001187
 67,0.00057837,-0.00100946,-0.02228542,-0.00833948,0.00353007,0.0007769
 4,-0.00243003,0.00300075,-0.00090112,-0.00026469,0.00005104,0.00025183
 ,-0.00045250,-0.00005509,0.00038450,-0.00003363,-0.00023195,-0.0003050
 9,0.00018746,0.00007738,-0.00024342,-0.00018318,-0.00030771,0.00021327
 ,-0.00008344,-0.00005156,0.00042407,-0.00100857,0.00033626,0.00006047,
 -0.00000228,-0.00002767,-0.00010320,0.00005049,0.00004522,-0.00007120,
 0.00007838,0.00007594,0.00013870,0.00014588,-0.00001127,0.00110425,-0.
 00100015,0.00027292,-0.00002754,0.00022512,0.00001679,-0.08101784,-0.0
 7573139,-0.00295318,-0.00000551,0.00024728,0.00003237,-0.00005919,-0.0
 0006473,0.00001617,-0.00001982,-0.00001316,0.00002918,-0.00005298,-0.0
 0000369,-0.00001047,-0.00005030,0.00001400,0.00020223,-0.00000999,0.00
 005382,0.00000729,-0.00001322,0.00001691,0.00000429,-0.00003311,0.0000
 2092,0.00000978,-0.00004148,-0.00001142,-0.00003573,0.00034807,0.00046
 251,0.00081230,0.00002790,-0.00004294,-0.00002582,-0.00002501,0.000076
 97,0.00005016,0.00001656,-0.00004255,-0.00000009,-0.01314072,-0.003486
 09,-0.00073887,0.09181243,0.08074041,0.00035303,-0.00083219,0.00120738
 ,0.02797087,0.00818952,-0.00214561,-0.00078022,0.00384176,-0.00254326,
 0.00137166,0.00019988,-0.00023361,-0.00015231,0.00040103,0.00007092,-0
 .00008283,0.00017939,0.00029098,0.00016603,0.00013819,0.00001028,-0.00
 003189,-0.00015263,0.00010815,0.00028607,0.00020242,0.00011646,-0.0001
 2169,0.00056192,-0.00003792,-0.00004342,-0.00017381,0.00001015,-0.0000
 5059,-0.00005389,-0.00002885,0.00005592,0.00005174,0.00003147,0.000065
 31,-0.00020798,-0.00012578,-0.00175617,0.00135381,-0.00073720,-0.00009
 904,0.00018363,-0.00025575,-0.01327861,-0.00380567,-0.05066193,0.00004
 214,-0.00028220,-0.00007025,0.00009475,0.00005781,0.00003553,0.0000237
 1,0.00001429,-0.00000976,0.00006188,0.00000850,-0.00000991,-0.00002802
 ,-0.00007274,-0.00007839,0.00002186,-0.00004092,-0.00001379,-0.0000044
 3,-0.00000806,-0.00000878,0.00002028,-0.00002861,0.00000062,0.00001961
 ,0.00000576,0.00001357,-0.00185023,0.00068987,-0.00176163,-0.00001010,
 -0.00004290,0.00005603,-0.00010595,0.00011124,0.00015239,0.00001088,-0
 .00005874,0.00002941,-0.02707639,-0.00790949,0.00091365,0.00970018,-0.
 00414443,0.05573940,-0.00022066,-0.00173605,0.00083666,0.00465906,-0.0
 0608144,0.00056524,-0.00021002,-0.00155416,-0.00047470,0.00047083,0.00
 051311,-0.00004295,-0.00008275,0.00038893,-0.00013095,-0.00052213,-0.0
 0009002,0.00008807,0.00028889,-0.00033498,-0.00021211,0.00031812,0.000
 30662,0.00029355,-0.00067412,-0.00075144,0.00078466,0.00002513,0.00013
 051,-0.00010086,0.00013136,-0.00015127,-0.00002501,-0.00018025,-0.0000
 0834,0.00001362,-0.00003587,0.00013700,0.00010978,0.00018424,0.0000620
 5,-0.00008304,-0.00025095,-0.00006962,-0.00051699,-0.00001010,-0.00016
 666,-0.00015172,-0.15043964,0.13282244,0.02565493,0.00012889,-0.000099
 15,0.00004365,0.00000781,0.00000684,0.00002171,0.00000318,0.00001453,-
 0.00003470,0.00004264,0.00001017,0.00003722,-0.00018696,0.00004059,0.0
 0002978,0.00000771,0.00001822,0.00001038,-0.00001272,0.00001276,-0.000
 00617,-0.00002127,0.00001094,0.00001421,-0.00001974,-0.00000818,-0.000
 02365,-0.00006413,0.00027551,0.00021178,0.00001065,-0.00003524,0.00000
 211,0.00000081,-0.00002895,0.00010990,0.00001408,-0.00004634,-0.000005
 07,0.00499285,-0.00682446,-0.00160435,-0.01491734,0.02403481,0.0052076
 9,0.15656240,-0.00275351,0.00127619,0.00297188,0.01352934,-0.02202960,
 0.00341164,0.00151793,0.00058709,-0.00015777,0.00020740,-0.00055436,-0
 .00051808,-0.00059273,-0.00049021,-0.00029048,0.00034740,-0.00000265,0
 .00002708,-0.00012454,0.00035170,0.00016196,-0.00042300,-0.00023362,-0
 .00026970,-0.00011987,-0.00006317,-0.00009715,-0.00065032,0.00013923,0
 .00000115,0.00025113,-0.00001970,-0.00005510,-0.00008219,-0.00005733,-
 0.00002115,0.00004490,0.00007630,0.00003503,0.00008812,0.00001043,-0.0
 0003096,-0.00007042,0.00000918,-0.00015958,-0.00022026,0.00028494,-0.0
 0036329,0.12774566,-0.21317501,-0.03502976,0.00056795,-0.00101036,0.00
 023680,-0.00001164,-0.00001085,-0.00000022,-0.00001073,0.00000462,0.00
 003975,-0.00000288,-0.00000526,0.00000011,-0.00004591,0.00005615,0.000
 21949,-0.00001833,0.00000239,0.00000584,0.00002360,-0.00000652,-0.0000
 0332,0.00000746,0.00000049,0.00000397,0.00002240,0.00000614,-0.0000013
 1,-0.00005679,0.00000989,0.00000584,0.00002801,-0.00006504,0.00000617,
 -0.00000162,-0.00029824,0.00008473,0.00003030,-0.00011927,-0.00003045,
 0.00804417,-0.00901305,-0.00226084,-0.00647228,0.01029539,0.00162352,-
 0.14079876,0.23404412,0.00223520,0.00125005,-0.00300776,-0.01907573,0.
 02695399,-0.00051738,-0.00042159,-0.00011037,0.00064546,-0.00019910,0.
 00023455,0.00027678,0.00046649,0.00109572,0.00036570,-0.00001753,0.000
 06006,-0.00002882,-0.00001699,-0.00012557,0.00001216,0.00015508,0.0000
 5599,-0.00011264,0.00018085,0.00029011,-0.00015862,0.00068019,-0.00004
 865,-0.00009487,-0.00023948,-0.00001112,0.00009205,0.00006473,0.000081
 85,0.00003830,-0.00004015,-0.00007678,-0.00001425,-0.00009156,0.000019
 87,0.00001524,0.00001205,-0.00012272,0.00005773,0.00005554,0.00024515,
 -0.00067118,0.03098466,-0.04063731,-0.05552274,-0.00052783,0.00097160,
 -0.00025131,0.00001166,0.00001705,-0.00001864,0.00001288,-0.00001138,0
 .00000963,0.00000345,0.00001035,-0.00001695,0.00017795,-0.00003801,-0.
 00007225,0.00001734,0.00000905,-0.00001024,-0.00002253,0.00000961,-0.0
 0000461,-0.00001058,0.00000258,-0.00000367,-0.00002293,-0.00000367,-0.
 00000820,0.00003824,0.00004629,-0.00003267,0.00000087,-0.00007957,0.00
 004408,-0.00001533,-0.00023017,0.00037692,0.00000806,-0.00015481,0.000
 13672,0.01764775,-0.02119104,-0.00289059,-0.00142900,0.00103314,-0.000
 06396,-0.03062266,0.03045416,0.06143057\\0.00000347,-0.00000135,-0.000
 00380,-0.00001909,-0.00000596,0.00000331,0.00002767,-0.00000053,0.0000
 0166,-0.00004994,0.00003573,0.00001657,0.00001381,-0.00002072,0.000019
 44,0.00000111,-0.00000313,0.00001040,0.00000450,-0.00000640,0.00000920
 ,0.00001403,0.00000246,0.00000913,-0.00001127,-0.00000570,0.00000810,0
 .00000020,-0.00001355,-0.00001079,0.00000467,0.00000537,-0.00000406,0.
 00000152,0.00000529,-0.00001057,-0.00000344,-0.00000294,-0.00000992,-0
 .00000416,0.00000021,-0.00001078,0.00000625,0.00000105,-0.00000406,0.0
 0000275,-0.00000960,-0.00001234,0.00000691,0.00002418,-0.00001883,0.00
 000394,0.00000060,-0.00000267,0.00000194,0.00000175,0.00000621,0.00000
 162,0.00000179,0.00001258,0.00000329,-0.00000263,0.00001336,0.00000192
 ,-0.00000280,0.00000792,0.00000300,0.00000171,-0.00000441,-0.00000189,
 0.00000245,-0.00001182,-0.00000172,0.00000106,-0.00001402,0.00000136,-
 0.00000166,-0.00000997,-0.00000116,0.00000056,-0.00000576,-0.00000648,
 0.00000455,-0.00000460,0.00000317,-0.00000076,0.00000358,-0.00000326,0
 .00000230,0.00000353,-0.00000248,-0.00000971,0.00000259,-0.00000035,-0
 .00000058,0.00000495,-0.00000190,-0.00000307,0.00000586\\\@
 The archive entry for this job was punched.


 TRUST EVERYONE, BUT CUT THE CARDS.
 Job cpu time:       0 days  7 hours 19 minutes 19.0 seconds.
 Elapsed time:       0 days  0 hours 26 minutes  8.5 seconds.
 File lengths (MBytes):  RWF=   1137 Int=      0 D2E=      0 Chk=     29 Scr=      1
 Normal termination of Gaussian 16 at Mon Nov  7 22:12:54 2022.
