 Entering Gaussian System, Link 0=g16
 Input=BIH-conformers-6.gau
 Output=BIH-conformers-6.log
 Initial command:
 /apps/gaussian/g16c01/g16/l1.exe "/jobfs/63305824.gadi-pbs/Gau-1711879.inp" -scrdir="/jobfs/63305824.gadi-pbs/"
 Default is to use a total of  20 processors:
                               20 via shared-memory
                                1 via Linda
 Entering Link 1 = /apps/gaussian/g16c01/g16/l1.exe PID=   1711880.
  
 Copyright (c) 1988-2019, Gaussian, Inc.  All Rights Reserved.
  
 This is part of the Gaussian(R) 16 program.  It is based on
 the Gaussian(R) 09 system (copyright 2009, Gaussian, Inc.),
 the Gaussian(R) 03 system (copyright 2003, Gaussian, Inc.),
 the Gaussian(R) 98 system (copyright 1998, Gaussian, Inc.),
 the Gaussian(R) 94 system (copyright 1995, Gaussian, Inc.),
 the Gaussian 92(TM) system (copyright 1992, Gaussian, Inc.),
 the Gaussian 90(TM) system (copyright 1990, Gaussian, Inc.),
 the Gaussian 88(TM) system (copyright 1988, Gaussian, Inc.),
 the Gaussian 86(TM) system (copyright 1986, Carnegie Mellon
 University), and the Gaussian 82(TM) system (copyright 1983,
 Carnegie Mellon University). Gaussian is a federally registered
 trademark of Gaussian, Inc.
  
 This software contains proprietary and confidential information,
 including trade secrets, belonging to Gaussian, Inc.
  
 This software is provided under written license and may be
 used, copied, transmitted, or stored only in accord with that
 written license.
  
 The following legend is applicable only to US Government
 contracts under FAR:
  
                    RESTRICTED RIGHTS LEGEND
  
 Use, reproduction and disclosure by the US Government is
 subject to restrictions as set forth in subparagraphs (a)
 and (c) of the Commercial Computer Software - Restricted
 Rights clause in FAR 52.227-19.
  
 Gaussian, Inc.
 340 Quinnipiac St., Bldg. 40, Wallingford CT 06492
  
  
 ---------------------------------------------------------------
 Warning -- This program may not be used in any manner that
 competes with the business of Gaussian, Inc. or will provide
 assistance to any competitor of Gaussian, Inc.  The licensee
 of this program is prohibited from giving any competitor of
 Gaussian, Inc. access to this program.  By using this program,
 the user acknowledges that Gaussian, Inc. is engaged in the
 business of creating and licensing software in the field of
 computational chemistry and represents and warrants to the
 licensee that it is not a competitor of Gaussian, Inc. and that
 it will not use this program in any manner prohibited above.
 ---------------------------------------------------------------
  

 Cite this work as:
 Gaussian 16, Revision C.01,
 M. J. Frisch, G. W. Trucks, H. B. Schlegel, G. E. Scuseria, 
 M. A. Robb, J. R. Cheeseman, G. Scalmani, V. Barone, 
 G. A. Petersson, H. Nakatsuji, X. Li, M. Caricato, A. V. Marenich, 
 J. Bloino, B. G. Janesko, R. Gomperts, B. Mennucci, H. P. Hratchian, 
 J. V. Ortiz, A. F. Izmaylov, J. L. Sonnenberg, D. Williams-Young, 
 F. Ding, F. Lipparini, F. Egidi, J. Goings, B. Peng, A. Petrone, 
 T. Henderson, D. Ranasinghe, V. G. Zakrzewski, J. Gao, N. Rega, 
 G. Zheng, W. Liang, M. Hada, M. Ehara, K. Toyota, R. Fukuda, 
 J. Hasegawa, M. Ishida, T. Nakajima, Y. Honda, O. Kitao, H. Nakai, 
 T. Vreven, K. Throssell, J. A. Montgomery, Jr., J. E. Peralta, 
 F. Ogliaro, M. J. Bearpark, J. J. Heyd, E. N. Brothers, K. N. Kudin, 
 V. N. Staroverov, T. A. Keith, R. Kobayashi, J. Normand, 
 K. Raghavachari, A. P. Rendell, J. C. Burant, S. S. Iyengar, 
 J. Tomasi, M. Cossi, J. M. Millam, M. Klene, C. Adamo, R. Cammi, 
 J. W. Ochterski, R. L. Martin, K. Morokuma, O. Farkas, 
 J. B. Foresman, and D. J. Fox, Gaussian, Inc., Wallingford CT, 2019.
 
 ******************************************
 Gaussian 16:  ES64L-G16RevC.01  3-Jul-2019
                11-Nov-2022 
 ******************************************
 %chk=BIH-conformers-6.chk
 Default route: Maxdisk=0MB
 ----------------------------------------------------------------------
 # opt(maxcycles=1000) freq=Noraman scf(maxcycle=500) uwb97xd/6-31+G(d,
 p) scrf=(smd,solvent=acetonitrile)
 ----------------------------------------------------------------------
 1/6=1000,18=20,19=15,26=3,38=1/1,3;
 2/9=110,12=2,17=6,18=5,40=1/2;
 3/5=1,6=6,7=111,11=2,25=1,30=1,70=32201,71=1,72=2,74=-58,116=2/1,2,3;
 4//1;
 5/5=2,7=500,38=5,53=2/2;
 6/7=2,8=2,9=2,10=2,28=1/1;
 7//1,2,3,16;
 1/6=1000,18=20,19=15,26=3/3(2);
 2/9=110/2;
 99//99;
 2/9=110/2;
 3/5=1,6=6,7=111,11=2,25=1,30=1,70=32205,71=1,72=2,74=-58,116=2/1,2,3;
 4/5=5,16=3,69=1/1;
 5/5=2,7=500,38=5,53=2/2;
 7//1,2,3,16;
 1/6=1000,18=20,19=15,26=3/3(-5);
 2/9=110/2;
 6/7=2,8=2,9=2,10=2,19=2,28=1/1;
 99/9=1/99;
 ----------
 OPT + Freq
 ----------
 Symbolic Z-matrix:
 Charge =  0 Multiplicity = 1
 C                     0.30799   0.00738  -0.59557 
 N                    -0.4471   -1.14053  -0.07865 
 C                    -1.76739  -0.70422   0.05956 
 C                    -1.7715    0.70378   0.06517 
 N                    -0.4518    1.14739  -0.07219 
 C                    -2.9502    1.41432   0.21602 
 C                    -4.14521   0.6877    0.37638 
 C                    -4.14107  -0.70233   0.37094 
 C                    -2.9419   -1.42188   0.20508 
 C                     1.75696   0.00742  -0.15867 
 C                     2.77664  -0.04171  -1.10893 
 C                     4.11522  -0.04969  -0.71089 
 C                     4.437    -0.00828   0.64422 
 C                     3.418     0.04276   1.60062 
 C                     2.08526   0.04887   1.20031 
 C                    -0.19084   2.43006  -0.68982 
 C                    -0.17834  -2.41954  -0.70778 
 H                     0.2739    0.00894  -1.70792 
 H                    -2.95726   2.49975   0.20488 
 H                    -5.08007   1.22548   0.49233 
 H                    -5.07521  -1.24709   0.48368 
 H                    -2.94428  -2.5074    0.18742 
 H                     2.52337  -0.07415  -2.16634 
 H                     4.90233  -0.08867  -1.45909 
 H                     5.47682  -0.01297   0.95766 
 H                     3.66528   0.07548   2.65814 
 H                     1.2913    0.08789   1.94192 
 H                    -0.70354   3.22008  -0.13677 
 H                    -0.52008   2.45659  -1.74046 
 H                     0.88209   2.63631  -0.65287 
 H                    -0.69006  -3.21392  -0.16051 
 H                     0.89484  -2.62118  -0.67324 
 H                    -0.50928  -2.43863  -1.75828 
 

 GradGradGradGradGradGradGradGradGradGradGradGradGradGradGradGradGradGrad
 Berny optimization.
 Initialization pass.
                           ----------------------------
                           !    Initial Parameters    !
                           ! (Angstroms and Degrees)  !
 --------------------------                            --------------------------
 ! Name  Definition              Value          Derivative Info.                !
 --------------------------------------------------------------------------------
 ! R1    R(1,2)                  1.468          estimate D2E/DX2                !
 ! R2    R(1,5)                  1.4666         estimate D2E/DX2                !
 ! R3    R(1,10)                 1.5134         estimate D2E/DX2                !
 ! R4    R(1,18)                 1.1129         estimate D2E/DX2                !
 ! R5    R(2,3)                  1.3974         estimate D2E/DX2                !
 ! R6    R(2,17)                 1.4505         estimate D2E/DX2                !
 ! R7    R(3,4)                  1.408          estimate D2E/DX2                !
 ! R8    R(3,9)                  1.3841         estimate D2E/DX2                !
 ! R9    R(4,5)                  1.399          estimate D2E/DX2                !
 ! R10   R(4,6)                  1.3845         estimate D2E/DX2                !
 ! R11   R(5,16)                 1.4473         estimate D2E/DX2                !
 ! R12   R(6,7)                  1.4077         estimate D2E/DX2                !
 ! R13   R(6,19)                 1.0855         estimate D2E/DX2                !
 ! R14   R(7,8)                  1.39           estimate D2E/DX2                !
 ! R15   R(7,20)                 1.0847         estimate D2E/DX2                !
 ! R16   R(8,9)                  1.4083         estimate D2E/DX2                !
 ! R17   R(8,21)                 1.0872         estimate D2E/DX2                !
 ! R18   R(9,22)                 1.0857         estimate D2E/DX2                !
 ! R19   R(10,11)                1.3947         estimate D2E/DX2                !
 ! R20   R(10,15)                1.3987         estimate D2E/DX2                !
 ! R21   R(11,12)                1.3965         estimate D2E/DX2                !
 ! R22   R(11,23)                1.0878         estimate D2E/DX2                !
 ! R23   R(12,13)                1.3934         estimate D2E/DX2                !
 ! R24   R(12,24)                1.0867         estimate D2E/DX2                !
 ! R25   R(13,14)                1.3985         estimate D2E/DX2                !
 ! R26   R(13,25)                1.086          estimate D2E/DX2                !
 ! R27   R(14,15)                1.3916         estimate D2E/DX2                !
 ! R28   R(14,26)                1.0865         estimate D2E/DX2                !
 ! R29   R(15,27)                1.0871         estimate D2E/DX2                !
 ! R30   R(16,28)                1.0922         estimate D2E/DX2                !
 ! R31   R(16,29)                1.1013         estimate D2E/DX2                !
 ! R32   R(16,30)                1.0932         estimate D2E/DX2                !
 ! R33   R(17,31)                1.092          estimate D2E/DX2                !
 ! R34   R(17,32)                1.0925         estimate D2E/DX2                !
 ! R35   R(17,33)                1.1016         estimate D2E/DX2                !
 ! A1    A(2,1,5)              102.4562         estimate D2E/DX2                !
 ! A2    A(2,1,10)             113.0062         estimate D2E/DX2                !
 ! A3    A(2,1,18)             109.7118         estimate D2E/DX2                !
 ! A4    A(5,1,10)             113.1398         estimate D2E/DX2                !
 ! A5    A(5,1,18)             109.8614         estimate D2E/DX2                !
 ! A6    A(10,1,18)            108.5346         estimate D2E/DX2                !
 ! A7    A(1,2,3)              106.0609         estimate D2E/DX2                !
 ! A8    A(1,2,17)             116.1981         estimate D2E/DX2                !
 ! A9    A(3,2,17)             119.5579         estimate D2E/DX2                !
 ! A10   A(2,3,4)              108.3845         estimate D2E/DX2                !
 ! A11   A(2,3,9)              130.5624         estimate D2E/DX2                !
 ! A12   A(4,3,9)              121.0378         estimate D2E/DX2                !
 ! A13   A(3,4,5)              108.2964         estimate D2E/DX2                !
 ! A14   A(3,4,6)              121.0719         estimate D2E/DX2                !
 ! A15   A(5,4,6)              130.6191         estimate D2E/DX2                !
 ! A16   A(1,5,4)              106.0968         estimate D2E/DX2                !
 ! A17   A(1,5,16)             116.3074         estimate D2E/DX2                !
 ! A18   A(4,5,16)             119.5369         estimate D2E/DX2                !
 ! A19   A(4,6,7)              118.0474         estimate D2E/DX2                !
 ! A20   A(4,6,19)             121.1699         estimate D2E/DX2                !
 ! A21   A(7,6,19)             120.7814         estimate D2E/DX2                !
 ! A22   A(6,7,8)              120.8756         estimate D2E/DX2                !
 ! A23   A(6,7,20)             119.2019         estimate D2E/DX2                !
 ! A24   A(8,7,20)             119.9177         estimate D2E/DX2                !
 ! A25   A(7,8,9)              120.9259         estimate D2E/DX2                !
 ! A26   A(7,8,21)             119.8734         estimate D2E/DX2                !
 ! A27   A(9,8,21)             119.1964         estimate D2E/DX2                !
 ! A28   A(3,9,8)              118.0365         estimate D2E/DX2                !
 ! A29   A(3,9,22)             121.2376         estimate D2E/DX2                !
 ! A30   A(8,9,22)             120.7252         estimate D2E/DX2                !
 ! A31   A(1,10,11)            120.2182         estimate D2E/DX2                !
 ! A32   A(1,10,15)            120.3458         estimate D2E/DX2                !
 ! A33   A(11,10,15)           119.435          estimate D2E/DX2                !
 ! A34   A(10,11,12)           120.4495         estimate D2E/DX2                !
 ! A35   A(10,11,23)           119.5467         estimate D2E/DX2                !
 ! A36   A(12,11,23)           120.0038         estimate D2E/DX2                !
 ! A37   A(11,12,13)           119.8922         estimate D2E/DX2                !
 ! A38   A(11,12,24)           119.8831         estimate D2E/DX2                !
 ! A39   A(13,12,24)           120.2247         estimate D2E/DX2                !
 ! A40   A(12,13,14)           119.8621         estimate D2E/DX2                !
 ! A41   A(12,13,25)           120.1096         estimate D2E/DX2                !
 ! A42   A(14,13,25)           120.0281         estimate D2E/DX2                !
 ! A43   A(13,14,15)           120.0846         estimate D2E/DX2                !
 ! A44   A(13,14,26)           120.0595         estimate D2E/DX2                !
 ! A45   A(15,14,26)           119.8557         estimate D2E/DX2                !
 ! A46   A(10,15,14)           120.2763         estimate D2E/DX2                !
 ! A47   A(10,15,27)           119.5008         estimate D2E/DX2                !
 ! A48   A(14,15,27)           120.2228         estimate D2E/DX2                !
 ! A49   A(5,16,28)            109.8964         estimate D2E/DX2                !
 ! A50   A(5,16,29)            111.9959         estimate D2E/DX2                !
 ! A51   A(5,16,30)            109.2531         estimate D2E/DX2                !
 ! A52   A(28,16,29)           108.9838         estimate D2E/DX2                !
 ! A53   A(28,16,30)           107.8864         estimate D2E/DX2                !
 ! A54   A(29,16,30)           108.7295         estimate D2E/DX2                !
 ! A55   A(2,17,31)            109.7103         estimate D2E/DX2                !
 ! A56   A(2,17,32)            109.3327         estimate D2E/DX2                !
 ! A57   A(2,17,33)            111.9159         estimate D2E/DX2                !
 ! A58   A(31,17,32)           108.0723         estimate D2E/DX2                !
 ! A59   A(31,17,33)           108.9377         estimate D2E/DX2                !
 ! A60   A(32,17,33)           108.7883         estimate D2E/DX2                !
 ! D1    D(5,1,2,3)             28.1723         estimate D2E/DX2                !
 ! D2    D(5,1,2,17)           163.714          estimate D2E/DX2                !
 ! D3    D(10,1,2,3)           150.2464         estimate D2E/DX2                !
 ! D4    D(10,1,2,17)          -74.2118         estimate D2E/DX2                !
 ! D5    D(18,1,2,3)           -88.4904         estimate D2E/DX2                !
 ! D6    D(18,1,2,17)           47.0514         estimate D2E/DX2                !
 ! D7    D(2,1,5,4)            -28.1098         estimate D2E/DX2                !
 ! D8    D(2,1,5,16)          -163.7572         estimate D2E/DX2                !
 ! D9    D(10,1,5,4)          -150.093          estimate D2E/DX2                !
 ! D10   D(10,1,5,16)           74.2596         estimate D2E/DX2                !
 ! D11   D(18,1,5,4)            88.4454         estimate D2E/DX2                !
 ! D12   D(18,1,5,16)          -47.202          estimate D2E/DX2                !
 ! D13   D(2,1,10,11)          119.5046         estimate D2E/DX2                !
 ! D14   D(2,1,10,15)          -60.1255         estimate D2E/DX2                !
 ! D15   D(5,1,10,11)         -124.6279         estimate D2E/DX2                !
 ! D16   D(5,1,10,15)           55.742          estimate D2E/DX2                !
 ! D17   D(18,1,10,11)          -2.4221         estimate D2E/DX2                !
 ! D18   D(18,1,10,15)         177.9477         estimate D2E/DX2                !
 ! D19   D(1,2,3,4)            -18.2017         estimate D2E/DX2                !
 ! D20   D(1,2,3,9)            163.2424         estimate D2E/DX2                !
 ! D21   D(17,2,3,4)          -151.9435         estimate D2E/DX2                !
 ! D22   D(17,2,3,9)            29.5006         estimate D2E/DX2                !
 ! D23   D(1,2,17,31)          172.4957         estimate D2E/DX2                !
 ! D24   D(1,2,17,32)           54.1426         estimate D2E/DX2                !
 ! D25   D(1,2,17,33)          -66.4582         estimate D2E/DX2                !
 ! D26   D(3,2,17,31)          -58.196          estimate D2E/DX2                !
 ! D27   D(3,2,17,32)         -176.5491         estimate D2E/DX2                !
 ! D28   D(3,2,17,33)           62.85           estimate D2E/DX2                !
 ! D29   D(2,3,4,5)              0.1049         estimate D2E/DX2                !
 ! D30   D(2,3,4,6)           -178.737          estimate D2E/DX2                !
 ! D31   D(9,3,4,5)            178.8245         estimate D2E/DX2                !
 ! D32   D(9,3,4,6)             -0.0174         estimate D2E/DX2                !
 ! D33   D(2,3,9,8)            177.8502         estimate D2E/DX2                !
 ! D34   D(2,3,9,22)            -2.4592         estimate D2E/DX2                !
 ! D35   D(4,3,9,8)             -0.5503         estimate D2E/DX2                !
 ! D36   D(4,3,9,22)           179.1403         estimate D2E/DX2                !
 ! D37   D(3,4,5,1)             18.0565         estimate D2E/DX2                !
 ! D38   D(3,4,5,16)           151.9792         estimate D2E/DX2                !
 ! D39   D(6,4,5,1)           -163.2503         estimate D2E/DX2                !
 ! D40   D(6,4,5,16)           -29.3277         estimate D2E/DX2                !
 ! D41   D(3,4,6,7)              0.5791         estimate D2E/DX2                !
 ! D42   D(3,4,6,19)          -179.0234         estimate D2E/DX2                !
 ! D43   D(5,4,6,7)           -177.9723         estimate D2E/DX2                !
 ! D44   D(5,4,6,19)             2.4252         estimate D2E/DX2                !
 ! D45   D(1,5,16,28)         -172.3193         estimate D2E/DX2                !
 ! D46   D(1,5,16,29)           66.3949         estimate D2E/DX2                !
 ! D47   D(1,5,16,30)          -54.1299         estimate D2E/DX2                !
 ! D48   D(4,5,16,28)           58.214          estimate D2E/DX2                !
 ! D49   D(4,5,16,29)          -63.0717         estimate D2E/DX2                !
 ! D50   D(4,5,16,30)          176.4035         estimate D2E/DX2                !
 ! D51   D(4,6,7,8)             -0.5727         estimate D2E/DX2                !
 ! D52   D(4,6,7,20)          -179.7703         estimate D2E/DX2                !
 ! D53   D(19,6,7,8)           179.0314         estimate D2E/DX2                !
 ! D54   D(19,6,7,20)           -0.1662         estimate D2E/DX2                !
 ! D55   D(6,7,8,9)              0.0065         estimate D2E/DX2                !
 ! D56   D(6,7,8,21)          -179.2351         estimate D2E/DX2                !
 ! D57   D(20,7,8,9)           179.1984         estimate D2E/DX2                !
 ! D58   D(20,7,8,21)           -0.0432         estimate D2E/DX2                !
 ! D59   D(7,8,9,3)              0.5549         estimate D2E/DX2                !
 ! D60   D(7,8,9,22)          -179.1374         estimate D2E/DX2                !
 ! D61   D(21,8,9,3)           179.8015         estimate D2E/DX2                !
 ! D62   D(21,8,9,22)            0.1093         estimate D2E/DX2                !
 ! D63   D(1,10,11,12)        -179.6289         estimate D2E/DX2                !
 ! D64   D(1,10,11,23)           0.3571         estimate D2E/DX2                !
 ! D65   D(15,10,11,12)          0.0046         estimate D2E/DX2                !
 ! D66   D(15,10,11,23)        179.9906         estimate D2E/DX2                !
 ! D67   D(1,10,15,14)         179.7097         estimate D2E/DX2                !
 ! D68   D(1,10,15,27)          -0.4095         estimate D2E/DX2                !
 ! D69   D(11,10,15,14)          0.0767         estimate D2E/DX2                !
 ! D70   D(11,10,15,27)        179.9575         estimate D2E/DX2                !
 ! D71   D(10,11,12,13)         -0.0043         estimate D2E/DX2                !
 ! D72   D(10,11,12,24)        179.9668         estimate D2E/DX2                !
 ! D73   D(23,11,12,13)       -179.9903         estimate D2E/DX2                !
 ! D74   D(23,11,12,24)         -0.0192         estimate D2E/DX2                !
 ! D75   D(11,12,13,14)         -0.0766         estimate D2E/DX2                !
 ! D76   D(11,12,13,25)       -179.9165         estimate D2E/DX2                !
 ! D77   D(24,12,13,14)        179.9524         estimate D2E/DX2                !
 ! D78   D(24,12,13,25)          0.1124         estimate D2E/DX2                !
 ! D79   D(12,13,14,15)          0.1577         estimate D2E/DX2                !
 ! D80   D(12,13,14,26)       -179.9804         estimate D2E/DX2                !
 ! D81   D(25,13,14,15)        179.9978         estimate D2E/DX2                !
 ! D82   D(25,13,14,26)         -0.1403         estimate D2E/DX2                !
 ! D83   D(13,14,15,10)         -0.1581         estimate D2E/DX2                !
 ! D84   D(13,14,15,27)        179.9619         estimate D2E/DX2                !
 ! D85   D(26,14,15,10)        179.9798         estimate D2E/DX2                !
 ! D86   D(26,14,15,27)          0.0998         estimate D2E/DX2                !
 --------------------------------------------------------------------------------
 Trust Radius=3.00D-01 FncErr=1.00D-07 GrdErr=1.00D-06 EigMax=2.50D+02 EigMin=1.00D-04
 Number of steps in this run=    198 maximum allowed number of steps=    198.
 GradGradGradGradGradGradGradGradGradGradGradGradGradGradGradGradGradGrad

                          Input orientation:                          
 ---------------------------------------------------------------------
 Center     Atomic      Atomic             Coordinates (Angstroms)
 Number     Number       Type             X           Y           Z
 ---------------------------------------------------------------------
      1          6           0        0.307991    0.007385   -0.595568
      2          7           0       -0.447101   -1.140535   -0.078655
      3          6           0       -1.767387   -0.704221    0.059558
      4          6           0       -1.771502    0.703776    0.065167
      5          7           0       -0.451800    1.147386   -0.072190
      6          6           0       -2.950197    1.414318    0.216019
      7          6           0       -4.145211    0.687704    0.376381
      8          6           0       -4.141074   -0.702328    0.370943
      9          6           0       -2.941899   -1.421880    0.205080
     10          6           0        1.756961    0.007422   -0.158673
     11          6           0        2.776638   -0.041706   -1.108934
     12          6           0        4.115218   -0.049693   -0.710890
     13          6           0        4.437002   -0.008276    0.644218
     14          6           0        3.417999    0.042765    1.600620
     15          6           0        2.085263    0.048873    1.200307
     16          6           0       -0.190840    2.430058   -0.689819
     17          6           0       -0.178336   -2.419535   -0.707776
     18          1           0        0.273900    0.008943   -1.707922
     19          1           0       -2.957257    2.499749    0.204877
     20          1           0       -5.080067    1.225481    0.492330
     21          1           0       -5.075207   -1.247092    0.483675
     22          1           0       -2.944279   -2.507403    0.187417
     23          1           0        2.523368   -0.074149   -2.166335
     24          1           0        4.902329   -0.088666   -1.459091
     25          1           0        5.476821   -0.012965    0.957664
     26          1           0        3.665280    0.075476    2.658144
     27          1           0        1.291297    0.087886    1.941915
     28          1           0       -0.703536    3.220082   -0.136766
     29          1           0       -0.520083    2.456594   -1.740460
     30          1           0        0.882088    2.636313   -0.652871
     31          1           0       -0.690060   -3.213923   -0.160507
     32          1           0        0.894836   -2.621176   -0.673235
     33          1           0       -0.509284   -2.438630   -1.758277
 ---------------------------------------------------------------------
                    Distance matrix (angstroms):
                    1          2          3          4          5
     1  C    0.000000
     2  N    1.468020   0.000000
     3  C    2.289709   1.397364   0.000000
     4  C    2.290376   2.275128   1.408014   0.000000
     5  N    1.466564   2.287935   2.275209   1.399025   0.000000
     6  C    3.640594   3.588815   2.431404   1.384539   2.529092
     7  C    4.608528   4.150366   2.773424   2.394077   3.748841
     8  C    4.607821   3.746945   2.394025   2.772273   4.150729
     9  C    3.639453   2.526594   1.384084   2.430600   3.588677
    10  C    1.513404   2.486382   3.602095   3.603480   2.487092
    11  C    2.521938   3.558285   4.738403   4.756032   3.593270
    12  C    3.809401   4.733330   5.968839   5.985270   4.764304
    13  C    4.311154   5.065473   6.270615   6.275973   5.074365
    14  C    3.807446   4.377117   5.460869   5.452107   4.358191
    15  C    2.526971   3.076248   4.087954   4.073337   3.043464
    16  C    2.475290   3.631573   3.587585   2.459379   1.447346
    17  C    2.477710   1.450473   2.460933   3.590362   3.633412
    18  H    1.112877   2.120296   2.792748   2.794693   2.120922
    19  H    4.185026   4.430907   3.420867   2.156630   2.860589
    20  H    5.630138   5.233396   3.858094   3.376573   4.663222
    21  H    5.631811   4.663361   3.378795   3.859469   5.236258
    22  H    4.185031   2.859199   2.157055   3.420822   4.431403
    23  H    2.716956   3.784082   4.874645   4.902110   3.837866
    24  H    4.675772   5.623916   6.868065   6.891397   5.667276
    25  H    5.397198   6.118678   7.332324   7.338151   6.128259
    26  H    4.675753   5.087281   6.072433   6.056145   5.055103
    27  H    2.722534   2.934918   3.677805   3.644481   2.866627
    28  H    3.399281   4.368537   4.070685   2.741008   2.088926
    29  H    2.827563   3.963112   3.845332   2.810464   2.121747
    30  H    2.691493   4.044879   4.322781   3.360330   2.081669
    31  H    3.400324   2.089178   2.740012   4.070480   4.368705
    32  H    2.694393   2.084855   3.361419   4.325495   4.046820
    33  H    2.828925   2.123688   2.809897   3.846149   3.963042
                    6          7          8          9         10
     6  C    0.000000
     7  C    1.407743   0.000000
     8  C    2.433593   1.390049   0.000000
     9  C    2.836231   2.434677   1.408292   0.000000
    10  C    4.927179   5.965292   5.964147   4.924886   0.000000
    11  C    6.055753   7.116895   7.105012   6.027701   1.394687
    12  C    7.274791   8.364246   8.352404   7.247399   2.422722
    13  C    7.535107   8.614552   8.610446   7.525908   2.797767
    14  C    6.659745   7.688749   7.694599   6.673906   2.419795
    15  C    5.309343   6.317101   6.326090   5.331599   1.398688
    16  C    3.076738   4.450800   5.151834   4.817322   3.153603
    17  C    4.820274   5.154264   4.451486   3.076671   3.152302
    18  H    4.008919   4.932908   4.931488   4.006020   2.144678
    19  H    1.085511   2.173511   3.417937   3.921659   5.344878
    20  H    2.156004   1.084714   2.147764   3.415084   6.975129
    21  H    3.416198   2.149381   1.087236   2.158511   6.976026
    22  H    3.921830   3.418576   2.173545   1.085669   5.342825
    23  H    6.152321   7.177449   7.158713   6.108120   2.150521
    24  H    8.168667   9.264432   9.247094   8.128889   3.404946
    25  H    8.579150   9.665005   9.660402   8.568913   3.883810
    26  H    7.177814   8.159965   8.171623   7.205165   3.403053
    27  H    4.767433   5.689139   5.709908   4.818292   2.153088
    28  H    2.903916   4.303648   5.240203   5.164779   4.046692
    29  H    3.289316   4.555386   5.248655   4.969193   3.699382
    30  H    4.115173   5.489095   6.117750   5.641620   2.814374
    31  H    5.164359   5.239181   4.301168   2.901008   4.045364
    32  H    5.644490   6.119842   5.489324   4.114643   2.813816
    33  H    4.970021   5.248876   4.553924   3.287274   3.698346
                   11         12         13         14         15
    11  C    0.000000
    12  C    1.396531   0.000000
    13  C    2.414843   1.393405   0.000000
    14  C    2.785707   2.416142   1.398455   0.000000
    15  C    2.412218   2.789822   2.417266   1.391572   0.000000
    16  C    3.884739   4.969079   5.398338   4.895814   3.797797
    17  C    3.814036   4.904158   5.379907   4.932062   3.854569
    18  H    2.573917   3.969035   4.781661   4.564313   3.426431
    19  H    6.408014   7.573519   7.820376   6.973433   5.694268
    20  H    8.117735   9.360934   9.597908   8.651257   7.295724
    21  H    8.101903   9.344766   9.593881   8.662900   7.312005
    22  H    6.363103   7.528863   7.806254   6.998505   5.732084
    23  H    1.087794   2.157059   3.400815   3.873498   3.397256
    24  H    2.154850   1.086677   2.155667   3.403284   3.876490
    25  H    3.400388   2.153923   1.086045   2.157602   3.400789
    26  H    3.872246   3.401250   2.158348   1.086543   2.149988
    27  H    3.395690   3.876962   3.404222   2.154386   1.087146
    28  H    4.867852   5.851619   6.120242   5.486430   4.429643
    29  H    4.184340   5.369125   6.027849   5.700691   4.607934
    30  H    3.311963   4.203704   4.616677   4.270311   3.402461
    31  H    4.793795   5.779789   6.100042   5.530255   4.494448
    32  H    3.222527   4.121262   4.594548   4.316636   3.472239
    33  H    4.118759   5.309431   6.012017   5.732631   4.655380
                   16         17         18         19         20
    16  C    0.000000
    17  C    4.849642   0.000000
    18  H    2.667267   2.665017   0.000000
    19  H    2.908333   5.723172   4.505917   0.000000
    20  H    5.172332   6.225221   5.914900   2.492530   0.000000
    21  H    6.225396   5.174314   5.915544   4.313033   2.472593
    22  H    5.720969   2.908527   4.503441   5.007199   4.311495
    23  H    3.977195   3.863604   2.297205   6.502680   8.159029
    24  H    5.733770   5.640087   4.636141   8.440485  10.255889
    25  H    6.387875   6.367579   5.846043   8.832559  10.639463
    26  H    5.623395   5.685761   5.528871   7.466835   9.082641
    27  H    3.822110   3.932918   3.789807   5.185036   6.632473
    28  H    1.092183   5.692730   3.706120   2.390577   4.850589
    29  H    1.101341   4.995985   2.573415   3.118656   5.224408
    30  H    1.093198   5.166151   2.895876   3.936363   6.232914
    31  H    5.690686   1.091978   3.702780   6.157900   6.277473
    32  H    5.166617   1.092497   2.893729   6.467889   7.201027
    33  H    4.994710   1.101564   2.570316   5.850994   6.275588
                   21         22         23         24         25
    21  H    0.000000
    22  H    2.493393   0.000000
    23  H    8.132447   6.430866   0.000000
    24  H   10.230714   8.374397   2.481907   0.000000
    25  H   10.634520   8.816486   4.299535   2.485252   0.000000
    26  H    9.103494   7.514121   4.960035   4.302192   2.486189
    27  H    6.666408   5.268196   4.292082   4.963624   4.300876
    28  H    6.281090   6.158743   5.038256   6.642446   7.060254
    29  H    6.277995   5.851043   3.981033   5.996672   7.024347
    30  H    7.201522   6.465677   3.511549   4.923194   5.542930
    31  H    4.849011   2.387828   4.920127   6.536694   7.037532
    32  H    6.234418   3.936048   3.371767   4.805328   5.518802
    33  H    5.224344   3.117636   3.867074   5.907402   7.006685
                   26         27         28         29         30
    26  H    0.000000
    27  H    2.479704   0.000000
    28  H    6.065198   4.255694   0.000000
    29  H    6.521864   4.738329   1.785610   0.000000
    30  H    5.026616   3.659897   1.766735   1.783601   0.000000
    31  H    6.142794   4.387242   6.434063   5.888965   6.077773
    32  H    5.103467   3.786187   6.079712   5.378170   5.257544
    33  H    6.576662   4.828747   5.889657   4.895268   5.377070
                   31         32         33
    31  H    0.000000
    32  H    1.768088   0.000000
    33  H    1.785113   1.783870   0.000000
 Stoichiometry    C15H16N2
 Framework group  C1[X(C15H16N2)]
 Deg. of freedom    93
 Full point group                 C1      NOp   1
 Largest Abelian subgroup         C1      NOp   1
 Largest concise Abelian subgroup C1      NOp   1
                         Standard orientation:                         
 ---------------------------------------------------------------------
 Center     Atomic      Atomic             Coordinates (Angstroms)
 Number     Number       Type             X           Y           Z
 ---------------------------------------------------------------------
      1          6           0       -0.307977    0.005179   -0.595710
      2          7           0        0.445915    1.142611   -0.054435
      3          6           0        1.766660    0.704837    0.074459
      4          6           0        1.772254   -0.702955    0.050052
      5          7           0        0.453017   -1.144922   -0.096745
      6          6           0        2.951697   -1.415313    0.185734
      7          6           0        4.145949   -0.691029    0.361563
      8          6           0        4.140352    0.698798    0.385757
      9          6           0        2.940419    1.420463    0.235259
     10          6           0       -1.756941   -0.005693   -0.158930
     11          6           0       -2.776680    0.062610   -1.107938
     12          6           0       -4.115263    0.060705   -0.709828
     13          6           0       -4.436987   -0.009929    0.644085
     14          6           0       -3.417920   -0.080276    1.599193
     15          6           0       -2.085183   -0.076450    1.198854
     16          6           0        0.193397   -2.414409   -0.741580
     17          6           0        0.175799    2.434449   -0.656151
     18          1           0       -0.273898    0.027370   -1.707844
     19          1           0        2.959896   -2.500252    0.151456
     20          1           0        5.081370   -1.230173    0.466030
     21          1           0        5.073913    1.242016    0.510088
     22          1           0        2.941659    2.506118    0.240741
     23          1           0       -2.523457    0.117853   -2.164405
     24          1           0       -4.902424    0.114792   -1.457037
     25          1           0       -5.476807   -0.013015    0.957549
     26          1           0       -3.665154   -0.135784    2.655776
     27          1           0       -1.291168   -0.130430    1.939470
     28          1           0        0.706929   -3.215505   -0.205489
     29          1           0        0.522655   -2.418196   -1.792544
     30          1           0       -0.879313   -2.622531   -0.709048
     31          1           0        0.686695    3.217526   -0.092065
     32          1           0       -0.897583    2.634181   -0.617330
     33          1           0        0.506715    2.476281   -1.706002
 ---------------------------------------------------------------------
 Rotational constants (GHZ):           1.1584074           0.2909204           0.2624644
 Standard basis: 6-31+G(d,p) (6D, 7F)
 There are   403 symmetry adapted cartesian basis functions of A   symmetry.
 There are   403 symmetry adapted basis functions of A   symmetry.
   403 basis functions,   656 primitive gaussians,   403 cartesian basis functions
    60 alpha electrons       60 beta electrons
       nuclear repulsion energy      1159.0900765354 Hartrees.
 NAtoms=   33 NActive=   33 NUniq=   33 SFac= 1.00D+00 NAtFMM=   60 NAOKFM=F Big=F
 Integral buffers will be    131072 words long.
 Raffenetti 2 integral format.
 Two-electron integral symmetry is turned on.
 Nuclear repulsion after empirical dispersion term =     1159.0651902526 Hartrees.
 ------------------------------------------------------------------------------
 Polarizable Continuum Model (PCM)
 =================================
 Model                : PCM.
 Atomic radii         : SMD-Coulomb.
 Polarization charges : Total charges.
 Charge compensation  : None.
 Solution method      : On-the-fly selection.
 Cavity type          : VdW (van der Waals Surface) (Alpha=1.000).
 Cavity algorithm     : GePol (No added spheres)
                        Default sphere list used, NSphG=   33.
                        Lebedev-Laikov grids with approx.  5.0 points / Ang**2.
                        Smoothing algorithm: York/Karplus (Gamma=1.0000).
                        Polarization charges: spherical gaussians, with
                                              point-specific exponents (IZeta= 3).
                        Self-potential: point-specific (ISelfS= 7).
                        Self-field    : sphere-specific E.n sum rule (ISelfD= 2).
 1st derivatives      : Analytical E(r).r(x)/FMM algorithm (CHGder, D1EAlg=3).
                        Cavity 1st derivative terms included.
 Solvent              : Acetonitrile, Eps=  35.688000 Eps(inf)=   1.806874
 ------------------------------------------------------------------------------
 ------------------------------------------------------------------------------
 Atomic radii for non-electrostatic terms: SMD-CDS.
 ------------------------------------------------------------------------------
 Nuclear repulsion after PCM non-electrostatic terms =     1159.0595782560 Hartrees.
 One-electron integrals computed using PRISM.
 NBasis=   403 RedAO= T EigKep=  1.08D-06  NBF=   403
 NBsUse=   402 1.00D-06 EigRej=  8.08D-07 NBFU=   402
 ExpMin= 4.38D-02 ExpMax= 4.17D+03 ExpMxC= 6.27D+02 IAcc=3 IRadAn=         5 AccDes= 0.00D+00
 Harris functional with IExCor= 4639 and IRadAn=       5 diagonalized for initial guess.
 HarFok:  IExCor= 4639 AccDes= 0.00D+00 IRadAn=         5 IDoV= 1 UseB2=F ITyADJ=14
 ICtDFT=  3500011 ScaDFX=  1.000000  1.000000  1.000000  1.000000
 FoFCou: FMM=F IPFlag=           0 FMFlag=      100000 FMFlg1=           0
         NFxFlg=           0 DoJE=T BraDBF=F KetDBF=T FulRan=T
         wScrn=  0.000000 ICntrl=       500 IOpCl=  0 I1Cent=   200000004 NGrid=           0
         NMat0=    1 NMatS0=      1 NMatT0=    0 NMatD0=    1 NMtDS0=    0 NMtDT0=    0
 Petite list used in FoFCou.
 Initial guess <Sx>= 0.0000 <Sy>= 0.0000 <Sz>= 0.0000 <S**2>=-0.0000 S=-0.0000
 Requested convergence on RMS density matrix=1.00D-08 within 500 cycles.
 Requested convergence on MAX density matrix=1.00D-06.
 Requested convergence on             energy=1.00D-06.
 No special actions if energy rises.
 Inv3:  Mode=1 IEnd=    18007500.
 Iteration    1 A*A^-1 deviation from unit magnitude is 4.33D-15 for   2424.
 Iteration    1 A*A^-1 deviation from orthogonality  is 1.63D-15 for   2444   2426.
 Iteration    1 A^-1*A deviation from unit magnitude is 3.89D-15 for   2424.
 Iteration    1 A^-1*A deviation from orthogonality  is 2.37D-15 for   2308   2015.
 Error on total polarization charges =  0.06520
 SCF Done:  E(UwB97XD) =  -690.567349136     A.U. after   16 cycles
            NFock= 16  Conv=0.69D-08     -V/T= 2.0095
 <Sx>= 0.0000 <Sy>= 0.0000 <Sz>= 0.0000 <S**2>=-0.0000 S=-0.0000
 <L.S>= 0.000000000000E+00
 SMD-CDS (non-electrostatic) energy       (kcal/mol) =      -3.52
 (included in total energy above)
 Annihilation of the first spin contaminant:
 S**2 before annihilation    -0.0000,   after     0.0000

 **********************************************************************

            Population analysis using the SCF Density.

 **********************************************************************

 Orbital symmetries:
 Alpha Orbitals:
       Occupied  (A) (A) (A) (A) (A) (A) (A) (A) (A) (A) (A) (A)
                 (A) (A) (A) (A) (A) (A) (A) (A) (A) (A) (A) (A)
                 (A) (A) (A) (A) (A) (A) (A) (A) (A) (A) (A) (A)
                 (A) (A) (A) (A) (A) (A) (A) (A) (A) (A) (A) (A)
                 (A) (A) (A) (A) (A) (A) (A) (A) (A) (A) (A) (A)
       Virtual   (A) (A) (A) (A) (A) (A) (A) (A) (A) (A) (A) (A)
                 (A) (A) (A) (A) (A) (A) (A) (A) (A) (A) (A) (A)
                 (A) (A) (A) (A) (A) (A) (A) (A) (A) (A) (A) (A)
                 (A) (A) (A) (A) (A) (A) (A) (A) (A) (A) (A) (A)
                 (A) (A) (A) (A) (A) (A) (A) (A) (A) (A) (A) (A)
                 (A) (A) (A) (A) (A) (A) (A) (A) (A) (A) (A) (A)
                 (A) (A) (A) (A) (A) (A) (A) (A) (A) (A) (A) (A)
                 (A) (A) (A) (A) (A) (A) (A) (A) (A) (A) (A) (A)
                 (A) (A) (A) (A) (A) (A) (A) (A) (A) (A) (A) (A)
                 (A) (A) (A) (A) (A) (A) (A) (A) (A) (A) (A) (A)
                 (A) (A) (A) (A) (A) (A) (A) (A) (A) (A) (A) (A)
                 (A) (A) (A) (A) (A) (A) (A) (A) (A) (A) (A) (A)
                 (A) (A) (A) (A) (A) (A) (A) (A) (A) (A) (A) (A)
                 (A) (A) (A) (A) (A) (A) (A) (A) (A) (A) (A) (A)
                 (A) (A) (A) (A) (A) (A) (A) (A) (A) (A) (A) (A)
                 (A) (A) (A) (A) (A) (A) (A) (A) (A) (A) (A) (A)
                 (A) (A) (A) (A) (A) (A) (A) (A) (A) (A) (A) (A)
                 (A) (A) (A) (A) (A) (A) (A) (A) (A) (A) (A) (A)
                 (A) (A) (A) (A) (A) (A) (A) (A) (A) (A) (A) (A)
                 (A) (A) (A) (A) (A) (A) (A) (A) (A) (A) (A) (A)
                 (A) (A) (A) (A) (A) (A) (A) (A) (A) (A) (A) (A)
                 (A) (A) (A) (A) (A) (A) (A) (A) (A) (A) (A) (A)
                 (A) (A) (A) (A) (A) (A) (A) (A) (A) (A) (A) (A)
                 (A) (A) (A) (A) (A) (A) (A) (A) (A) (A) (A) (A)
                 (A) (A) (A) (A) (A) (A) (A) (A) (A) (A) (A) (A)
                 (A) (A) (A) (A) (A) (A) (A) (A) (A) (A) (A) (A)
                 (A) (A) (A) (A) (A) (A) (A) (A) (A) (A) (A) (A)
                 (A) (A) (A) (A) (A) (A) (A) (A) (A) (A) (A) (A)
                 (A) (A) (A) (A) (A) (A)
 Beta  Orbitals:
       Occupied  (A) (A) (A) (A) (A) (A) (A) (A) (A) (A) (A) (A)
                 (A) (A) (A) (A) (A) (A) (A) (A) (A) (A) (A) (A)
                 (A) (A) (A) (A) (A) (A) (A) (A) (A) (A) (A) (A)
                 (A) (A) (A) (A) (A) (A) (A) (A) (A) (A) (A) (A)
                 (A) (A) (A) (A) (A) (A) (A) (A) (A) (A) (A) (A)
       Virtual   (A) (A) (A) (A) (A) (A) (A) (A) (A) (A) (A) (A)
                 (A) (A) (A) (A) (A) (A) (A) (A) (A) (A) (A) (A)
                 (A) (A) (A) (A) (A) (A) (A) (A) (A) (A) (A) (A)
                 (A) (A) (A) (A) (A) (A) (A) (A) (A) (A) (A) (A)
                 (A) (A) (A) (A) (A) (A) (A) (A) (A) (A) (A) (A)
                 (A) (A) (A) (A) (A) (A) (A) (A) (A) (A) (A) (A)
                 (A) (A) (A) (A) (A) (A) (A) (A) (A) (A) (A) (A)
                 (A) (A) (A) (A) (A) (A) (A) (A) (A) (A) (A) (A)
                 (A) (A) (A) (A) (A) (A) (A) (A) (A) (A) (A) (A)
                 (A) (A) (A) (A) (A) (A) (A) (A) (A) (A) (A) (A)
                 (A) (A) (A) (A) (A) (A) (A) (A) (A) (A) (A) (A)
                 (A) (A) (A) (A) (A) (A) (A) (A) (A) (A) (A) (A)
                 (A) (A) (A) (A) (A) (A) (A) (A) (A) (A) (A) (A)
                 (A) (A) (A) (A) (A) (A) (A) (A) (A) (A) (A) (A)
                 (A) (A) (A) (A) (A) (A) (A) (A) (A) (A) (A) (A)
                 (A) (A) (A) (A) (A) (A) (A) (A) (A) (A) (A) (A)
                 (A) (A) (A) (A) (A) (A) (A) (A) (A) (A) (A) (A)
                 (A) (A) (A) (A) (A) (A) (A) (A) (A) (A) (A) (A)
                 (A) (A) (A) (A) (A) (A) (A) (A) (A) (A) (A) (A)
                 (A) (A) (A) (A) (A) (A) (A) (A) (A) (A) (A) (A)
                 (A) (A) (A) (A) (A) (A) (A) (A) (A) (A) (A) (A)
                 (A) (A) (A) (A) (A) (A) (A) (A) (A) (A) (A) (A)
                 (A) (A) (A) (A) (A) (A) (A) (A) (A) (A) (A) (A)
                 (A) (A) (A) (A) (A) (A) (A) (A) (A) (A) (A) (A)
                 (A) (A) (A) (A) (A) (A) (A) (A) (A) (A) (A) (A)
                 (A) (A) (A) (A) (A) (A) (A) (A) (A) (A) (A) (A)
                 (A) (A) (A) (A) (A) (A) (A) (A) (A) (A) (A) (A)
                 (A) (A) (A) (A) (A) (A) (A) (A) (A) (A) (A) (A)
                 (A) (A) (A) (A) (A) (A)
 The electronic state is 1-A.
 Alpha  occ. eigenvalues --  -14.47090 -14.47072 -10.36832 -10.33359 -10.33305
 Alpha  occ. eigenvalues --  -10.31637 -10.31616 -10.31200 -10.30676 -10.30654
 Alpha  occ. eigenvalues --  -10.30607 -10.30577 -10.30498 -10.29898 -10.29893
 Alpha  occ. eigenvalues --  -10.29655 -10.29590  -1.10343  -1.00629  -0.96514
 Alpha  occ. eigenvalues --   -0.94447  -0.87206  -0.84799  -0.84507  -0.84130
 Alpha  occ. eigenvalues --   -0.80976  -0.76284  -0.74066  -0.70239  -0.68243
 Alpha  occ. eigenvalues --   -0.68050  -0.66745  -0.60914  -0.59624  -0.58913
 Alpha  occ. eigenvalues --   -0.58797  -0.55617  -0.53427  -0.53000  -0.52861
 Alpha  occ. eigenvalues --   -0.51953  -0.51670  -0.50454  -0.50281  -0.49497
 Alpha  occ. eigenvalues --   -0.47889  -0.47031  -0.45939  -0.45853  -0.45645
 Alpha  occ. eigenvalues --   -0.43427  -0.42439  -0.42165  -0.42072  -0.37219
 Alpha  occ. eigenvalues --   -0.37132  -0.33426  -0.33099  -0.30263  -0.25441
 Alpha virt. eigenvalues --    0.04646   0.05358   0.05864   0.07130   0.07486
 Alpha virt. eigenvalues --    0.07995   0.08436   0.08503   0.09137   0.09865
 Alpha virt. eigenvalues --    0.09938   0.10459   0.10977   0.11395   0.11658
 Alpha virt. eigenvalues --    0.12384   0.12462   0.13245   0.14114   0.14209
 Alpha virt. eigenvalues --    0.14713   0.14769   0.15149   0.15327   0.17662
 Alpha virt. eigenvalues --    0.17703   0.18345   0.18576   0.18806   0.18833
 Alpha virt. eigenvalues --    0.19608   0.19863   0.20072   0.20563   0.20841
 Alpha virt. eigenvalues --    0.20938   0.22250   0.22287   0.22597   0.22922
 Alpha virt. eigenvalues --    0.23482   0.23648   0.23926   0.24797   0.24865
 Alpha virt. eigenvalues --    0.25389   0.25629   0.26098   0.26453   0.26576
 Alpha virt. eigenvalues --    0.26776   0.27503   0.27902   0.28229   0.28321
 Alpha virt. eigenvalues --    0.28572   0.28660   0.29575   0.29768   0.29993
 Alpha virt. eigenvalues --    0.30146   0.30536   0.31716   0.32122   0.32506
 Alpha virt. eigenvalues --    0.32856   0.33084   0.33172   0.33745   0.34045
 Alpha virt. eigenvalues --    0.34154   0.35070   0.35358   0.35900   0.36406
 Alpha virt. eigenvalues --    0.36533   0.36991   0.37205   0.37675   0.38674
 Alpha virt. eigenvalues --    0.38901   0.39442   0.39747   0.39833   0.40499
 Alpha virt. eigenvalues --    0.40865   0.41894   0.42170   0.42488   0.42876
 Alpha virt. eigenvalues --    0.44336   0.44834   0.46611   0.46938   0.48302
 Alpha virt. eigenvalues --    0.48505   0.49560   0.50808   0.52656   0.52865
 Alpha virt. eigenvalues --    0.54057   0.54072   0.54841   0.57069   0.67192
 Alpha virt. eigenvalues --    0.67328   0.71084   0.71992   0.73525   0.75585
 Alpha virt. eigenvalues --    0.75706   0.77334   0.77992   0.78371   0.78960
 Alpha virt. eigenvalues --    0.79097   0.79761   0.81523   0.81807   0.82663
 Alpha virt. eigenvalues --    0.82795   0.83746   0.84185   0.84819   0.86176
 Alpha virt. eigenvalues --    0.87169   0.87981   0.88355   0.89106   0.89335
 Alpha virt. eigenvalues --    0.89971   0.90496   0.91360   0.92716   0.93750
 Alpha virt. eigenvalues --    0.95587   0.95700   0.98479   0.99119   1.01064
 Alpha virt. eigenvalues --    1.01536   1.01594   1.02657   1.03421   1.04165
 Alpha virt. eigenvalues --    1.05077   1.05275   1.06463   1.07823   1.08174
 Alpha virt. eigenvalues --    1.09699   1.11018   1.11402   1.11979   1.12459
 Alpha virt. eigenvalues --    1.14130   1.14348   1.15514   1.15990   1.17750
 Alpha virt. eigenvalues --    1.18717   1.21602   1.22051   1.22862   1.23561
 Alpha virt. eigenvalues --    1.23884   1.24194   1.26564   1.27260   1.27929
 Alpha virt. eigenvalues --    1.28248   1.29400   1.30093   1.31607   1.33944
 Alpha virt. eigenvalues --    1.34461   1.35222   1.36709   1.38616   1.39619
 Alpha virt. eigenvalues --    1.42600   1.43658   1.46036   1.46977   1.48011
 Alpha virt. eigenvalues --    1.48387   1.48878   1.49529   1.50386   1.50681
 Alpha virt. eigenvalues --    1.51245   1.53022   1.53710   1.54537   1.55989
 Alpha virt. eigenvalues --    1.62271   1.64534   1.65458   1.67801   1.71381
 Alpha virt. eigenvalues --    1.71693   1.77527   1.82929   1.84251   1.85551
 Alpha virt. eigenvalues --    1.86729   1.90972   1.92212   1.94333   1.95003
 Alpha virt. eigenvalues --    1.95346   1.98173   1.99361   2.00818   2.01160
 Alpha virt. eigenvalues --    2.01644   2.02138   2.02232   2.03942   2.05042
 Alpha virt. eigenvalues --    2.06936   2.07133   2.08431   2.08582   2.09533
 Alpha virt. eigenvalues --    2.11363   2.11454   2.11526   2.12003   2.12888
 Alpha virt. eigenvalues --    2.14369   2.15538   2.15964   2.16424   2.16625
 Alpha virt. eigenvalues --    2.18496   2.21485   2.22613   2.22744   2.24683
 Alpha virt. eigenvalues --    2.25635   2.26307   2.28662   2.31845   2.35126
 Alpha virt. eigenvalues --    2.36411   2.38039   2.39055   2.39313   2.40433
 Alpha virt. eigenvalues --    2.42011   2.45593   2.46552   2.48576   2.48848
 Alpha virt. eigenvalues --    2.48946   2.49364   2.49802   2.51086   2.55408
 Alpha virt. eigenvalues --    2.55739   2.57085   2.57848   2.58175   2.61167
 Alpha virt. eigenvalues --    2.61440   2.61638   2.64513   2.64955   2.66249
 Alpha virt. eigenvalues --    2.66543   2.66613   2.68587   2.68831   2.69302
 Alpha virt. eigenvalues --    2.72120   2.72650   2.73354   2.75302   2.76006
 Alpha virt. eigenvalues --    2.76140   2.79403   2.80185   2.80981   2.82590
 Alpha virt. eigenvalues --    2.83142   2.84166   2.86001   2.87357   2.89646
 Alpha virt. eigenvalues --    2.90292   2.92187   2.93315   2.93747   2.99424
 Alpha virt. eigenvalues --    3.00769   3.04088   3.07576   3.08729   3.11378
 Alpha virt. eigenvalues --    3.12267   3.17550   3.18983   3.24187   3.28350
 Alpha virt. eigenvalues --    3.28903   3.33377   3.37192   3.37351   3.38249
 Alpha virt. eigenvalues --    3.38886   3.39137   3.45766   3.48111   3.49797
 Alpha virt. eigenvalues --    3.52869   3.57691   3.58519   3.58793   3.59728
 Alpha virt. eigenvalues --    3.60134   3.61937   3.64351   3.96942   4.00671
 Alpha virt. eigenvalues --    4.39883   4.41583   4.42469   4.45961   4.50353
 Alpha virt. eigenvalues --    4.55463   4.55829   4.59851   4.60608   4.64141
 Alpha virt. eigenvalues --    4.66892   4.70586   4.71272   4.75270   4.84227
 Alpha virt. eigenvalues --    4.98529   4.99856
  Beta  occ. eigenvalues --  -14.47090 -14.47072 -10.36832 -10.33359 -10.33305
  Beta  occ. eigenvalues --  -10.31637 -10.31616 -10.31200 -10.30676 -10.30654
  Beta  occ. eigenvalues --  -10.30607 -10.30577 -10.30498 -10.29898 -10.29893
  Beta  occ. eigenvalues --  -10.29655 -10.29590  -1.10343  -1.00629  -0.96514
  Beta  occ. eigenvalues --   -0.94447  -0.87206  -0.84799  -0.84507  -0.84130
  Beta  occ. eigenvalues --   -0.80976  -0.76284  -0.74066  -0.70239  -0.68243
  Beta  occ. eigenvalues --   -0.68050  -0.66745  -0.60914  -0.59624  -0.58913
  Beta  occ. eigenvalues --   -0.58797  -0.55617  -0.53427  -0.53000  -0.52861
  Beta  occ. eigenvalues --   -0.51953  -0.51670  -0.50454  -0.50281  -0.49497
  Beta  occ. eigenvalues --   -0.47889  -0.47031  -0.45939  -0.45853  -0.45645
  Beta  occ. eigenvalues --   -0.43427  -0.42439  -0.42165  -0.42072  -0.37219
  Beta  occ. eigenvalues --   -0.37132  -0.33426  -0.33099  -0.30263  -0.25441
  Beta virt. eigenvalues --    0.04646   0.05358   0.05864   0.07130   0.07486
  Beta virt. eigenvalues --    0.07995   0.08436   0.08503   0.09137   0.09865
  Beta virt. eigenvalues --    0.09938   0.10459   0.10977   0.11395   0.11658
  Beta virt. eigenvalues --    0.12384   0.12462   0.13245   0.14114   0.14209
  Beta virt. eigenvalues --    0.14713   0.14769   0.15149   0.15327   0.17662
  Beta virt. eigenvalues --    0.17703   0.18345   0.18576   0.18806   0.18833
  Beta virt. eigenvalues --    0.19608   0.19863   0.20072   0.20563   0.20841
  Beta virt. eigenvalues --    0.20938   0.22250   0.22287   0.22597   0.22922
  Beta virt. eigenvalues --    0.23482   0.23648   0.23926   0.24797   0.24865
  Beta virt. eigenvalues --    0.25389   0.25629   0.26098   0.26453   0.26576
  Beta virt. eigenvalues --    0.26776   0.27503   0.27902   0.28229   0.28321
  Beta virt. eigenvalues --    0.28572   0.28660   0.29575   0.29768   0.29993
  Beta virt. eigenvalues --    0.30146   0.30536   0.31716   0.32122   0.32506
  Beta virt. eigenvalues --    0.32856   0.33084   0.33172   0.33745   0.34045
  Beta virt. eigenvalues --    0.34154   0.35070   0.35358   0.35900   0.36406
  Beta virt. eigenvalues --    0.36533   0.36991   0.37205   0.37675   0.38674
  Beta virt. eigenvalues --    0.38901   0.39442   0.39747   0.39833   0.40499
  Beta virt. eigenvalues --    0.40865   0.41894   0.42170   0.42488   0.42876
  Beta virt. eigenvalues --    0.44336   0.44834   0.46611   0.46938   0.48302
  Beta virt. eigenvalues --    0.48505   0.49560   0.50808   0.52656   0.52865
  Beta virt. eigenvalues --    0.54057   0.54072   0.54841   0.57069   0.67192
  Beta virt. eigenvalues --    0.67328   0.71084   0.71992   0.73525   0.75585
  Beta virt. eigenvalues --    0.75706   0.77334   0.77992   0.78371   0.78960
  Beta virt. eigenvalues --    0.79097   0.79761   0.81523   0.81807   0.82663
  Beta virt. eigenvalues --    0.82795   0.83746   0.84185   0.84819   0.86176
  Beta virt. eigenvalues --    0.87169   0.87981   0.88355   0.89106   0.89335
  Beta virt. eigenvalues --    0.89971   0.90496   0.91360   0.92716   0.93750
  Beta virt. eigenvalues --    0.95587   0.95700   0.98479   0.99119   1.01064
  Beta virt. eigenvalues --    1.01536   1.01594   1.02657   1.03421   1.04165
  Beta virt. eigenvalues --    1.05077   1.05275   1.06463   1.07823   1.08174
  Beta virt. eigenvalues --    1.09699   1.11018   1.11402   1.11979   1.12459
  Beta virt. eigenvalues --    1.14130   1.14348   1.15514   1.15990   1.17750
  Beta virt. eigenvalues --    1.18717   1.21602   1.22051   1.22862   1.23561
  Beta virt. eigenvalues --    1.23884   1.24194   1.26564   1.27260   1.27929
  Beta virt. eigenvalues --    1.28248   1.29400   1.30093   1.31607   1.33944
  Beta virt. eigenvalues --    1.34461   1.35222   1.36709   1.38616   1.39619
  Beta virt. eigenvalues --    1.42600   1.43658   1.46036   1.46977   1.48011
  Beta virt. eigenvalues --    1.48387   1.48878   1.49529   1.50386   1.50681
  Beta virt. eigenvalues --    1.51245   1.53022   1.53710   1.54537   1.55989
  Beta virt. eigenvalues --    1.62271   1.64534   1.65458   1.67801   1.71381
  Beta virt. eigenvalues --    1.71693   1.77527   1.82929   1.84251   1.85551
  Beta virt. eigenvalues --    1.86729   1.90972   1.92212   1.94333   1.95003
  Beta virt. eigenvalues --    1.95346   1.98173   1.99361   2.00818   2.01160
  Beta virt. eigenvalues --    2.01644   2.02138   2.02232   2.03942   2.05042
  Beta virt. eigenvalues --    2.06936   2.07133   2.08431   2.08582   2.09533
  Beta virt. eigenvalues --    2.11363   2.11454   2.11526   2.12003   2.12888
  Beta virt. eigenvalues --    2.14369   2.15538   2.15964   2.16424   2.16625
  Beta virt. eigenvalues --    2.18496   2.21485   2.22613   2.22744   2.24683
  Beta virt. eigenvalues --    2.25635   2.26307   2.28662   2.31845   2.35126
  Beta virt. eigenvalues --    2.36411   2.38039   2.39055   2.39313   2.40433
  Beta virt. eigenvalues --    2.42011   2.45593   2.46552   2.48576   2.48848
  Beta virt. eigenvalues --    2.48946   2.49364   2.49802   2.51086   2.55408
  Beta virt. eigenvalues --    2.55739   2.57085   2.57848   2.58175   2.61167
  Beta virt. eigenvalues --    2.61440   2.61638   2.64513   2.64955   2.66249
  Beta virt. eigenvalues --    2.66543   2.66613   2.68587   2.68831   2.69302
  Beta virt. eigenvalues --    2.72120   2.72650   2.73354   2.75302   2.76006
  Beta virt. eigenvalues --    2.76140   2.79403   2.80185   2.80981   2.82590
  Beta virt. eigenvalues --    2.83142   2.84166   2.86001   2.87357   2.89646
  Beta virt. eigenvalues --    2.90292   2.92187   2.93315   2.93747   2.99424
  Beta virt. eigenvalues --    3.00769   3.04088   3.07576   3.08729   3.11378
  Beta virt. eigenvalues --    3.12267   3.17550   3.18983   3.24187   3.28350
  Beta virt. eigenvalues --    3.28903   3.33377   3.37192   3.37351   3.38249
  Beta virt. eigenvalues --    3.38886   3.39137   3.45766   3.48111   3.49797
  Beta virt. eigenvalues --    3.52869   3.57691   3.58519   3.58793   3.59728
  Beta virt. eigenvalues --    3.60134   3.61937   3.64351   3.96942   4.00671
  Beta virt. eigenvalues --    4.39883   4.41583   4.42469   4.45961   4.50353
  Beta virt. eigenvalues --    4.55463   4.55829   4.59851   4.60608   4.64141
  Beta virt. eigenvalues --    4.66892   4.70586   4.71272   4.75270   4.84227
  Beta virt. eigenvalues --    4.98529   4.99856
          Condensed to atoms (all electrons):
               1          2          3          4          5          6
     1  C   25.782946  -2.572457  -0.864542  -0.839043  -2.511373  -1.252434
     2  N   -2.572457   7.959424  -0.375890   0.492380   0.094635  -0.022366
     3  C   -0.864542  -0.375890  13.909923  -1.723377   0.481211  -0.371425
     4  C   -0.839043   0.492380  -1.723377  13.844223  -0.398559  -4.347949
     5  N   -2.511373   0.094635   0.481211  -0.398559   7.956144   0.182877
     6  C   -1.252434  -0.022366  -0.371425  -4.347949   0.182877  10.100180
     7  C   -0.108989   0.030433  -0.882815   0.686879  -0.017954  -0.068167
     8  C   -0.072283  -0.019456   0.675824  -0.846789   0.026909   0.113049
     9  C   -1.648550   0.270233  -4.650175  -0.403161   0.000162   1.507987
    10  C   -5.901510   0.329198  -0.253802  -0.410303   0.315317  -0.126080
    11  C    9.352390  -0.852026   0.302454   0.340396  -0.856432  -0.340696
    12  C   -0.532520  -0.070892  -0.049558  -0.085094  -0.059925   0.007095
    13  C   -0.225841   0.032169   0.007420   0.008045   0.032868   0.008794
    14  C   -2.095525   0.332453   0.133729   0.091650   0.350911  -0.012979
    15  C   -8.684561   1.154340  -0.522090  -0.529518   1.181177   0.630500
    16  C   -0.424439  -0.047506   0.193068  -0.552070   0.325250   0.135168
    17  C   -0.479204   0.333199  -0.522140   0.187466  -0.037920  -0.004701
    18  H   -0.276896   0.050604   0.155744   0.138900   0.052027   0.014650
    19  H    0.004382  -0.000709   0.012293   0.075326  -0.011353   0.228865
    20  H    0.000688   0.000568  -0.010591   0.011322  -0.000517   0.004637
    21  H    0.001092  -0.000514   0.013678  -0.010584   0.000585   0.012524
    22  H    0.006719  -0.011493   0.077298   0.016095  -0.000878  -0.026013
    23  H   -0.043065   0.001284  -0.000870  -0.001685   0.000649   0.000295
    24  H   -0.011798  -0.000144  -0.000014  -0.000061  -0.000123  -0.000002
    25  H    0.004446  -0.000109  -0.000037  -0.000009  -0.000107   0.000007
    26  H   -0.002635  -0.000023  -0.000247  -0.000241   0.000003  -0.000107
    27  H   -0.054137   0.018049   0.003486   0.007138   0.020094  -0.008562
    28  H    0.068273  -0.005683  -0.001731  -0.026442  -0.057538  -0.015128
    29  H   -0.203791   0.016305  -0.003358   0.000465  -0.026823   0.072030
    30  H    0.170559  -0.010327   0.009155   0.007379  -0.098146  -0.026858
    31  H    0.064024  -0.056375  -0.023197   0.000512  -0.005483  -0.003848
    32  H    0.173925  -0.095524   0.004387   0.013907  -0.010154  -0.004808
    33  H   -0.193178  -0.031542   0.001515  -0.013897   0.015826   0.016584
               7          8          9         10         11         12
     1  C   -0.108989  -0.072283  -1.648550  -5.901510   9.352390  -0.532520
     2  N    0.030433  -0.019456   0.270233   0.329198  -0.852026  -0.070892
     3  C   -0.882815   0.675824  -4.650175  -0.253802   0.302454  -0.049558
     4  C    0.686879  -0.846789  -0.403161  -0.410303   0.340396  -0.085094
     5  N   -0.017954   0.026909   0.000162   0.315317  -0.856432  -0.059925
     6  C   -0.068167   0.113049   1.507987  -0.126080  -0.340696   0.007095
     7  C    5.895526   0.365390   0.167093  -0.016931   0.004439  -0.001165
     8  C    0.365390   5.858757  -0.066872   0.004534   0.007653   0.000703
     9  C    0.167093  -0.066872  10.521851  -0.089950  -0.441363   0.007363
    10  C   -0.016931   0.004534  -0.089950  20.545586 -10.651824   1.046654
    11  C    0.004439   0.007653  -0.441363 -10.651824  24.343172  -2.287843
    12  C   -0.001165   0.000703   0.007363   1.046654  -2.287843   6.775305
    13  C    0.000321  -0.000066   0.009641  -0.812133   0.392276   0.374305
    14  C    0.001097   0.002062   0.001124   0.142176  -0.846638  -0.075974
    15  C    0.006827  -0.007671   0.767954   1.509550 -12.344147   0.895062
    16  C   -0.026736   0.003425  -0.007727   0.188589  -0.172888   0.017435
    17  C    0.003001  -0.020651   0.164533   0.172524  -0.182959   0.006007
    18  H    0.000742   0.001259   0.021169   0.029111  -0.165866  -0.021340
    19  H    0.034679   0.009417  -0.025476  -0.002440  -0.000633  -0.000007
    20  H    0.297886   0.011780   0.012836   0.000090   0.000016  -0.000000
    21  H    0.012064   0.296846   0.002736   0.000096   0.000023  -0.000000
    22  H    0.008786   0.034023   0.223591  -0.002774  -0.000573   0.000002
    23  H    0.000037   0.000087   0.000534   0.138045   0.147018   0.045235
    24  H   -0.000000  -0.000000   0.000004   0.039060  -0.009813   0.317532
    25  H   -0.000000  -0.000000   0.000005   0.007766  -0.011245   0.025522
    26  H    0.000002   0.000002  -0.000111   0.043364   0.008481  -0.000278
    27  H   -0.000551  -0.000688  -0.007953  -0.002882  -0.005563  -0.002280
    28  H   -0.004896  -0.000225  -0.004357  -0.002933   0.005424  -0.000093
    29  H    0.013499  -0.001136   0.018371   0.040656  -0.037908   0.000143
    30  H   -0.004784   0.000679  -0.005196  -0.043468   0.068265   0.000861
    31  H   -0.000368  -0.005370  -0.019204  -0.001759   0.003099  -0.000244
    32  H    0.000697  -0.004936  -0.029888  -0.052557   0.069124   0.001531
    33  H   -0.001020   0.014371   0.078007   0.037103  -0.029659   0.000848
              13         14         15         16         17         18
     1  C   -0.225841  -2.095525  -8.684561  -0.424439  -0.479204  -0.276896
     2  N    0.032169   0.332453   1.154340  -0.047506   0.333199   0.050604
     3  C    0.007420   0.133729  -0.522090   0.193068  -0.522140   0.155744
     4  C    0.008045   0.091650  -0.529518  -0.552070   0.187466   0.138900
     5  N    0.032868   0.350911   1.181177   0.325250  -0.037920   0.052027
     6  C    0.008794  -0.012979   0.630500   0.135168  -0.004701   0.014650
     7  C    0.000321   0.001097   0.006827  -0.026736   0.003001   0.000742
     8  C   -0.000066   0.002062  -0.007671   0.003425  -0.020651   0.001259
     9  C    0.009641   0.001124   0.767954  -0.007727   0.164533   0.021169
    10  C   -0.812133   0.142176   1.509550   0.188589   0.172524   0.029111
    11  C    0.392276  -0.846638 -12.344147  -0.172888  -0.182959  -0.165866
    12  C    0.374305  -0.075974   0.895062   0.017435   0.006007  -0.021340
    13  C    5.267748   0.589586   0.217350   0.000181   0.000248  -0.000952
    14  C    0.589586   8.022695  -0.682661   0.038448   0.040168   0.040495
    15  C    0.217350  -0.682661  21.761590   0.089933   0.112149   0.130457
    16  C    0.000181   0.038448   0.089933   5.281280  -0.036609   0.019489
    17  C    0.000248   0.040168   0.112149  -0.036609   5.270854   0.019164
    18  H   -0.000952   0.040495   0.130457   0.019489   0.019164   0.635182
    19  H   -0.000003  -0.000046   0.000762  -0.001875  -0.000085  -0.000002
    20  H   -0.000000   0.000002  -0.000079  -0.000185   0.000209  -0.000000
    21  H   -0.000000   0.000002  -0.000090   0.000209  -0.000188  -0.000000
    22  H   -0.000006  -0.000059   0.000537  -0.000075  -0.002040  -0.000002
    23  H   -0.013175   0.011975   0.026008   0.001524   0.002955   0.003982
    24  H   -0.004261   0.014727  -0.017004   0.000107   0.000069   0.000004
    25  H    0.281096   0.022874  -0.002305  -0.000039  -0.000038  -0.000000
    26  H   -0.005150   0.307996  -0.023562   0.000139   0.000117   0.000002
    27  H   -0.002979  -0.005619   0.356775   0.002494   0.000620  -0.000032
    28  H   -0.000035  -0.001722  -0.011201   0.423485  -0.000632  -0.000143
    29  H    0.000199   0.004560   0.037203   0.412976   0.003148   0.007935
    30  H   -0.001828  -0.016853  -0.077130   0.393594  -0.001138  -0.001986
    31  H   -0.000098  -0.001020  -0.009242  -0.000642   0.423775  -0.000141
    32  H   -0.002103  -0.015181  -0.074243  -0.001045   0.392105  -0.002013
    33  H    0.000435   0.003598   0.031980   0.003091   0.412579   0.007835
              19         20         21         22         23         24
     1  C    0.004382   0.000688   0.001092   0.006719  -0.043065  -0.011798
     2  N   -0.000709   0.000568  -0.000514  -0.011493   0.001284  -0.000144
     3  C    0.012293  -0.010591   0.013678   0.077298  -0.000870  -0.000014
     4  C    0.075326   0.011322  -0.010584   0.016095  -0.001685  -0.000061
     5  N   -0.011353  -0.000517   0.000585  -0.000878   0.000649  -0.000123
     6  C    0.228865   0.004637   0.012524  -0.026013   0.000295  -0.000002
     7  C    0.034679   0.297886   0.012064   0.008786   0.000037  -0.000000
     8  C    0.009417   0.011780   0.296846   0.034023   0.000087  -0.000000
     9  C   -0.025476   0.012836   0.002736   0.223591   0.000534   0.000004
    10  C   -0.002440   0.000090   0.000096  -0.002774   0.138045   0.039060
    11  C   -0.000633   0.000016   0.000023  -0.000573   0.147018  -0.009813
    12  C   -0.000007  -0.000000  -0.000000   0.000002   0.045235   0.317532
    13  C   -0.000003  -0.000000  -0.000000  -0.000006  -0.013175  -0.004261
    14  C   -0.000046   0.000002   0.000002  -0.000059   0.011975   0.014727
    15  C    0.000762  -0.000079  -0.000090   0.000537   0.026008  -0.017004
    16  C   -0.001875  -0.000185   0.000209  -0.000075   0.001524   0.000107
    17  C   -0.000085   0.000209  -0.000188  -0.002040   0.002955   0.000069
    18  H   -0.000002  -0.000000  -0.000000  -0.000002   0.003982   0.000004
    19  H    0.495137  -0.003233  -0.000119   0.000012   0.000000  -0.000000
    20  H   -0.003233   0.496738  -0.003575  -0.000119   0.000000   0.000000
    21  H   -0.000119  -0.003575   0.496970  -0.003220   0.000000   0.000000
    22  H    0.000012  -0.000119  -0.003220   0.495048  -0.000000  -0.000000
    23  H    0.000000   0.000000   0.000000  -0.000000   0.497673  -0.003614
    24  H   -0.000000   0.000000   0.000000  -0.000000  -0.003614   0.485979
    25  H    0.000000  -0.000000  -0.000000   0.000000  -0.000114  -0.003644
    26  H   -0.000000   0.000000   0.000000  -0.000000   0.000011  -0.000115
    27  H    0.000001  -0.000000  -0.000000   0.000001  -0.000112   0.000011
    28  H   -0.000161   0.000003   0.000000   0.000000   0.000002  -0.000000
    29  H   -0.000143  -0.000000  -0.000000   0.000000   0.000002   0.000000
    30  H    0.000002  -0.000000  -0.000000  -0.000000  -0.000070  -0.000003
    31  H    0.000000   0.000000   0.000003  -0.000158   0.000003  -0.000000
    32  H   -0.000000  -0.000000  -0.000000   0.000002  -0.000111  -0.000004
    33  H    0.000000  -0.000000  -0.000000  -0.000147  -0.000008   0.000000
              25         26         27         28         29         30
     1  C    0.004446  -0.002635  -0.054137   0.068273  -0.203791   0.170559
     2  N   -0.000109  -0.000023   0.018049  -0.005683   0.016305  -0.010327
     3  C   -0.000037  -0.000247   0.003486  -0.001731  -0.003358   0.009155
     4  C   -0.000009  -0.000241   0.007138  -0.026442   0.000465   0.007379
     5  N   -0.000107   0.000003   0.020094  -0.057538  -0.026823  -0.098146
     6  C    0.000007  -0.000107  -0.008562  -0.015128   0.072030  -0.026858
     7  C   -0.000000   0.000002  -0.000551  -0.004896   0.013499  -0.004784
     8  C   -0.000000   0.000002  -0.000688  -0.000225  -0.001136   0.000679
     9  C    0.000005  -0.000111  -0.007953  -0.004357   0.018371  -0.005196
    10  C    0.007766   0.043364  -0.002882  -0.002933   0.040656  -0.043468
    11  C   -0.011245   0.008481  -0.005563   0.005424  -0.037908   0.068265
    12  C    0.025522  -0.000278  -0.002280  -0.000093   0.000143   0.000861
    13  C    0.281096  -0.005150  -0.002979  -0.000035   0.000199  -0.001828
    14  C    0.022874   0.307996  -0.005619  -0.001722   0.004560  -0.016853
    15  C   -0.002305  -0.023562   0.356775  -0.011201   0.037203  -0.077130
    16  C   -0.000039   0.000139   0.002494   0.423485   0.412976   0.393594
    17  C   -0.000038   0.000117   0.000620  -0.000632   0.003148  -0.001138
    18  H   -0.000000   0.000002  -0.000032  -0.000143   0.007935  -0.001986
    19  H    0.000000  -0.000000   0.000001  -0.000161  -0.000143   0.000002
    20  H   -0.000000   0.000000  -0.000000   0.000003  -0.000000  -0.000000
    21  H   -0.000000   0.000000  -0.000000   0.000000  -0.000000  -0.000000
    22  H    0.000000  -0.000000   0.000001   0.000000   0.000000  -0.000000
    23  H   -0.000114   0.000011  -0.000112   0.000002   0.000002  -0.000070
    24  H   -0.003644  -0.000115   0.000011  -0.000000   0.000000  -0.000003
    25  H    0.488770  -0.003591  -0.000113  -0.000000   0.000000   0.000000
    26  H   -0.003591   0.487304  -0.003914   0.000000   0.000000  -0.000002
    27  H   -0.000113  -0.003914   0.497789  -0.000004  -0.000002  -0.000023
    28  H   -0.000000   0.000000  -0.000004   0.505932  -0.031467  -0.019070
    29  H    0.000000   0.000000  -0.000002  -0.031467   0.543311  -0.032539
    30  H    0.000000  -0.000002  -0.000023  -0.019070  -0.032539   0.509235
    31  H   -0.000000   0.000000   0.000001  -0.000000   0.000000   0.000000
    32  H    0.000000  -0.000001  -0.000006   0.000000   0.000000  -0.000000
    33  H   -0.000000   0.000000  -0.000002   0.000000  -0.000002   0.000000
              31         32         33
     1  C    0.064024   0.173925  -0.193178
     2  N   -0.056375  -0.095524  -0.031542
     3  C   -0.023197   0.004387   0.001515
     4  C    0.000512   0.013907  -0.013897
     5  N   -0.005483  -0.010154   0.015826
     6  C   -0.003848  -0.004808   0.016584
     7  C   -0.000368   0.000697  -0.001020
     8  C   -0.005370  -0.004936   0.014371
     9  C   -0.019204  -0.029888   0.078007
    10  C   -0.001759  -0.052557   0.037103
    11  C    0.003099   0.069124  -0.029659
    12  C   -0.000244   0.001531   0.000848
    13  C   -0.000098  -0.002103   0.000435
    14  C   -0.001020  -0.015181   0.003598
    15  C   -0.009242  -0.074243   0.031980
    16  C   -0.000642  -0.001045   0.003091
    17  C    0.423775   0.392105   0.412579
    18  H   -0.000141  -0.002013   0.007835
    19  H    0.000000  -0.000000   0.000000
    20  H    0.000000  -0.000000  -0.000000
    21  H    0.000003  -0.000000  -0.000000
    22  H   -0.000158   0.000002  -0.000147
    23  H    0.000003  -0.000111  -0.000008
    24  H   -0.000000  -0.000004   0.000000
    25  H   -0.000000   0.000000  -0.000000
    26  H    0.000000  -0.000001   0.000000
    27  H    0.000001  -0.000006  -0.000002
    28  H   -0.000000   0.000000   0.000000
    29  H    0.000000   0.000000  -0.000002
    30  H    0.000000  -0.000000   0.000000
    31  H    0.505743  -0.019026  -0.031430
    32  H   -0.019026   0.508795  -0.032552
    33  H   -0.031430  -0.032552   0.542748
          Atomic-Atomic Spin Densities.
               1          2          3          4          5          6
     1  C   -0.000000   0.000000   0.000000  -0.000000   0.000000  -0.000000
     2  N    0.000000  -0.000000  -0.000000   0.000000  -0.000000  -0.000000
     3  C    0.000000  -0.000000   0.000000  -0.000000  -0.000000   0.000000
     4  C   -0.000000   0.000000  -0.000000   0.000000   0.000000  -0.000000
     5  N    0.000000  -0.000000  -0.000000   0.000000  -0.000000   0.000000
     6  C   -0.000000  -0.000000   0.000000  -0.000000   0.000000   0.000000
     7  C   -0.000000   0.000000  -0.000000   0.000000   0.000000  -0.000000
     8  C    0.000000  -0.000000   0.000000  -0.000000   0.000000   0.000000
     9  C   -0.000000   0.000000  -0.000000   0.000000  -0.000000   0.000000
    10  C    0.000000  -0.000000  -0.000000   0.000000  -0.000000   0.000000
    11  C   -0.000000   0.000000  -0.000000  -0.000000   0.000000  -0.000000
    12  C    0.000000  -0.000000   0.000000   0.000000  -0.000000  -0.000000
    13  C   -0.000000   0.000000   0.000000   0.000000   0.000000   0.000000
    14  C    0.000000  -0.000000  -0.000000   0.000000  -0.000000  -0.000000
    15  C    0.000000  -0.000000   0.000000   0.000000  -0.000000   0.000000
    16  C    0.000000  -0.000000   0.000000  -0.000000  -0.000000   0.000000
    17  C    0.000000  -0.000000  -0.000000   0.000000  -0.000000   0.000000
    18  H    0.000000  -0.000000  -0.000000   0.000000  -0.000000   0.000000
    19  H    0.000000  -0.000000   0.000000   0.000000  -0.000000  -0.000000
    20  H    0.000000   0.000000  -0.000000  -0.000000   0.000000   0.000000
    21  H   -0.000000   0.000000  -0.000000   0.000000   0.000000  -0.000000
    22  H    0.000000  -0.000000   0.000000  -0.000000  -0.000000  -0.000000
    23  H    0.000000  -0.000000   0.000000   0.000000  -0.000000   0.000000
    24  H    0.000000  -0.000000  -0.000000   0.000000  -0.000000   0.000000
    25  H   -0.000000   0.000000   0.000000   0.000000   0.000000   0.000000
    26  H   -0.000000   0.000000  -0.000000  -0.000000   0.000000  -0.000000
    27  H    0.000000  -0.000000  -0.000000   0.000000  -0.000000  -0.000000
    28  H    0.000000   0.000000   0.000000  -0.000000   0.000000  -0.000000
    29  H   -0.000000  -0.000000  -0.000000   0.000000  -0.000000   0.000000
    30  H   -0.000000   0.000000   0.000000  -0.000000   0.000000  -0.000000
    31  H   -0.000000   0.000000  -0.000000  -0.000000   0.000000  -0.000000
    32  H   -0.000000   0.000000  -0.000000  -0.000000   0.000000  -0.000000
    33  H    0.000000  -0.000000  -0.000000   0.000000  -0.000000   0.000000
               7          8          9         10         11         12
     1  C   -0.000000   0.000000  -0.000000   0.000000  -0.000000   0.000000
     2  N    0.000000  -0.000000   0.000000  -0.000000   0.000000  -0.000000
     3  C   -0.000000   0.000000  -0.000000  -0.000000  -0.000000   0.000000
     4  C    0.000000  -0.000000   0.000000   0.000000  -0.000000   0.000000
     5  N    0.000000   0.000000  -0.000000  -0.000000   0.000000  -0.000000
     6  C   -0.000000   0.000000   0.000000   0.000000  -0.000000  -0.000000
     7  C    0.000000  -0.000000   0.000000   0.000000  -0.000000  -0.000000
     8  C   -0.000000   0.000000  -0.000000  -0.000000   0.000000   0.000000
     9  C    0.000000  -0.000000   0.000000   0.000000  -0.000000  -0.000000
    10  C    0.000000  -0.000000   0.000000  -0.000000   0.000000  -0.000000
    11  C   -0.000000   0.000000  -0.000000   0.000000  -0.000000   0.000000
    12  C   -0.000000   0.000000  -0.000000  -0.000000   0.000000  -0.000000
    13  C    0.000000  -0.000000   0.000000   0.000000  -0.000000   0.000000
    14  C    0.000000  -0.000000  -0.000000  -0.000000   0.000000  -0.000000
    15  C    0.000000  -0.000000   0.000000  -0.000000   0.000000  -0.000000
    16  C   -0.000000   0.000000  -0.000000  -0.000000   0.000000  -0.000000
    17  C    0.000000  -0.000000   0.000000  -0.000000   0.000000  -0.000000
    18  H    0.000000  -0.000000   0.000000  -0.000000   0.000000  -0.000000
    19  H   -0.000000   0.000000  -0.000000  -0.000000   0.000000  -0.000000
    20  H   -0.000000   0.000000  -0.000000   0.000000  -0.000000   0.000000
    21  H    0.000000  -0.000000   0.000000   0.000000  -0.000000   0.000000
    22  H   -0.000000   0.000000  -0.000000  -0.000000   0.000000   0.000000
    23  H    0.000000  -0.000000   0.000000  -0.000000   0.000000  -0.000000
    24  H    0.000000  -0.000000   0.000000  -0.000000   0.000000   0.000000
    25  H   -0.000000   0.000000   0.000000  -0.000000   0.000000  -0.000000
    26  H    0.000000  -0.000000  -0.000000   0.000000  -0.000000   0.000000
    27  H    0.000000  -0.000000  -0.000000   0.000000   0.000000  -0.000000
    28  H   -0.000000   0.000000  -0.000000   0.000000  -0.000000   0.000000
    29  H    0.000000  -0.000000   0.000000  -0.000000   0.000000  -0.000000
    30  H   -0.000000   0.000000  -0.000000   0.000000  -0.000000   0.000000
    31  H   -0.000000   0.000000   0.000000   0.000000  -0.000000   0.000000
    32  H    0.000000   0.000000  -0.000000   0.000000  -0.000000   0.000000
    33  H    0.000000  -0.000000   0.000000  -0.000000   0.000000  -0.000000
              13         14         15         16         17         18
     1  C   -0.000000   0.000000   0.000000   0.000000   0.000000   0.000000
     2  N    0.000000  -0.000000  -0.000000  -0.000000  -0.000000  -0.000000
     3  C    0.000000  -0.000000   0.000000   0.000000  -0.000000  -0.000000
     4  C    0.000000   0.000000   0.000000  -0.000000   0.000000   0.000000
     5  N    0.000000  -0.000000  -0.000000  -0.000000  -0.000000  -0.000000
     6  C    0.000000  -0.000000   0.000000   0.000000   0.000000   0.000000
     7  C    0.000000   0.000000   0.000000  -0.000000   0.000000   0.000000
     8  C   -0.000000  -0.000000  -0.000000   0.000000  -0.000000  -0.000000
     9  C    0.000000  -0.000000   0.000000  -0.000000   0.000000   0.000000
    10  C    0.000000  -0.000000  -0.000000  -0.000000  -0.000000  -0.000000
    11  C   -0.000000   0.000000   0.000000   0.000000   0.000000   0.000000
    12  C    0.000000  -0.000000  -0.000000  -0.000000  -0.000000  -0.000000
    13  C   -0.000000   0.000000   0.000000   0.000000   0.000000   0.000000
    14  C    0.000000  -0.000000  -0.000000  -0.000000  -0.000000  -0.000000
    15  C    0.000000  -0.000000  -0.000000  -0.000000  -0.000000  -0.000000
    16  C    0.000000  -0.000000  -0.000000  -0.000000   0.000000  -0.000000
    17  C    0.000000  -0.000000  -0.000000   0.000000  -0.000000  -0.000000
    18  H    0.000000  -0.000000  -0.000000  -0.000000  -0.000000  -0.000000
    19  H    0.000000  -0.000000  -0.000000  -0.000000  -0.000000   0.000000
    20  H   -0.000000   0.000000   0.000000   0.000000   0.000000  -0.000000
    21  H   -0.000000   0.000000   0.000000   0.000000   0.000000   0.000000
    22  H    0.000000  -0.000000  -0.000000  -0.000000  -0.000000  -0.000000
    23  H    0.000000  -0.000000  -0.000000  -0.000000  -0.000000  -0.000000
    24  H    0.000000   0.000000  -0.000000   0.000000  -0.000000   0.000000
    25  H    0.000000  -0.000000  -0.000000  -0.000000   0.000000   0.000000
    26  H   -0.000000   0.000000  -0.000000   0.000000   0.000000   0.000000
    27  H   -0.000000  -0.000000  -0.000000  -0.000000  -0.000000  -0.000000
    28  H   -0.000000   0.000000   0.000000   0.000000   0.000000  -0.000000
    29  H    0.000000  -0.000000  -0.000000  -0.000000  -0.000000  -0.000000
    30  H   -0.000000   0.000000   0.000000   0.000000   0.000000   0.000000
[...]
 60,-0.00000104,0.11680038,-0.00433502,-0.00177052,0.00282156,0.0005797
 2,-0.00171458,-0.00077209,0.00051813,-0.00067396,0.00003598,0.00191144
 ,0.00100083,-0.00076842,0.01679394,-0.02889495,-0.01217297,-0.00056160
 ,-0.00024876,0.00008872,-0.00021180,0.00004007,-0.00003575,-0.00016499
 ,0.00014623,0.00001773,0.00015921,0.00006370,0.00003922,-0.00043037,0.
 00002427,-0.00018612,0.00009425,0.00003836,0.00012044,0.00006045,0.000
 03073,-0.00000688,0.00006245,-0.00000327,-0.00001190,-0.00002124,0.000
 00237,0.00003074,0.00012921,0.00002606,-0.00001687,0.09022035,-0.18475
 964,-0.09814968,-0.00044856,-0.00009534,0.00055286,-0.00001496,0.00001
 765,-0.00017739,-0.00084444,0.00008393,0.00006579,-0.00001349,-0.00000
 286,0.00000283,-0.00001550,0.00002412,0.00002218,-0.00000156,-0.000016
 19,-0.00001236,-0.00001548,-0.00001829,-0.00001309,0.00002901,0.000000
 58,-0.00000060,0.00001196,-0.00000463,0.00000233,0.00002324,-0.0000021
 5,0.00001790,-0.00000891,-0.00001111,-0.00002344,-0.10040806,0.2097263
 3,0.00131774,0.00216119,-0.00052627,-0.00030452,0.00088155,0.00050603,
 -0.00025263,0.00019268,-0.00014377,0.00002691,-0.00074601,0.00067635,-
 0.01107301,0.01542603,0.00924340,0.00028368,-0.00012718,-0.00025247,0.
 00005661,0.00024721,-0.00027262,0.00012355,-0.00014103,0.00000141,-0.0
 0012017,-0.00001661,-0.00004236,0.00024922,-0.00001162,0.00003864,-0.0
 0002565,-0.00003348,-0.00006979,-0.00003676,-0.00000212,0.00000357,-0.
 00002373,-0.00000212,0.00001113,0.00001755,0.00000803,-0.00001540,-0.0
 0003844,-0.00003233,0.00001697,0.07145194,-0.10551208,-0.12535381,0.00
 021885,0.00009710,-0.00020571,-0.00016577,0.00035920,0.00017740,0.0003
 0345,0.00022221,0.00022764,0.00001079,-0.00000007,0.00000695,0.0000144
 1,0.00000907,0.00004026,-0.00000818,0.00000375,0.00000675,0.00000165,0
 .00001216,0.00000955,-0.00001252,-0.00000041,-0.00000034,-0.00000358,0
 .00000104,-0.00000033,-0.00000941,-0.00000001,-0.00000605,0.00001052,-
 0.00000996,0.00000441,-0.07531297,0.10505028,0.12863727,-0.00007530,0.
 00027200,-0.00038046,-0.00032996,-0.00002960,0.00009875,0.00046705,-0.
 00033980,-0.00041386,0.00198754,0.00039986,0.00197012,0.00343360,-0.00
 078529,0.00819237,0.00049405,0.00056425,-0.00078098,-0.00037647,-0.000
 25327,-0.00010463,0.00011122,0.00038584,0.00002457,0.00019205,-0.00008
 640,-0.00014058,-0.00001964,-0.00017252,-0.00004238,0.00002139,-0.0000
 1914,-0.00004859,-0.00000130,-0.00000216,0.00000357,-0.00000558,0.0000
 0083,0.00000007,0.00000522,-0.00002624,0.00001302,0.00004619,0.0000202
 2,0.00006184,-0.07652662,-0.00188044,-0.07365328,-0.00002021,-0.000044
 91,-0.00004482,-0.00025772,0.00006738,-0.00008834,0.00008896,0.0001001
 5,0.00019221,0.00002385,-0.00001072,-0.00000389,0.00000883,0.00001532,
 0.00001815,0.00001393,0.00002251,0.00002046,0.00001124,0.00001240,0.00
 001703,-0.00000498,-0.00000027,-0.00000024,-0.00000109,0.00000695,0.00
 000062,-0.00000224,-0.00000355,-0.00000081,0.00001300,0.00000937,-0.00
 000240,0.00549939,-0.00021551,0.01501435,0.07241306,-0.00162166,0.0031
 4715,0.00498568,-0.00015347,-0.00001224,-0.00047316,-0.00023577,-0.001
 33919,-0.00069508,0.00658644,0.00266386,0.00050873,0.00425814,-0.01392
 301,0.03619545,-0.00092520,0.00057841,-0.00029902,0.00000539,-0.000142
 32,-0.00015367,-0.00055747,0.00012063,0.00012218,0.00059504,0.00009828
 ,-0.00019115,0.00005952,-0.00016406,-0.00043532,0.00005115,0.00001950,
 0.00007765,0.00004119,0.00001617,-0.00000406,0.00004387,-0.00000551,-0
 .00001178,-0.00000086,-0.00000425,-0.00004063,0.00002459,-0.00001427,0
 .00002992,-0.00167050,-0.04982712,-0.00791647,-0.00009378,0.00010558,-
 0.00002921,-0.00024205,0.00059819,-0.00165508,-0.00001459,-0.00005008,
 0.00026368,-0.00005484,0.00000188,0.00000570,-0.00002110,-0.00000984,0
 .00002661,0.00000811,-0.00003436,0.00004671,-0.00000162,0.00000161,-0.
 00001016,0.00001431,0.00000173,0.00000036,0.00000767,0.00000240,-0.000
 00157,0.00000256,-0.00000018,0.00000642,0.00000265,0.00000238,-0.00006
 605,-0.00837191,0.00123739,-0.02043875,0.00276250,0.05672857,0.0014044
 2,-0.00140771,0.00098902,-0.00048508,-0.00025159,0.00033297,0.00153872
 ,0.00161687,-0.00003337,-0.00497292,-0.00218984,0.00105748,0.00245454,
 0.01589992,-0.01630275,0.00053932,-0.00029278,-0.00027954,0.00013960,0
 .00059760,-0.00017679,0.00114901,-0.00047292,-0.00016911,-0.00125499,-
 0.00017441,0.00012033,0.00000673,0.00010544,-0.00006149,-0.00007266,0.
 00001341,-0.00016989,-0.00004160,-0.00001497,0.00002347,-0.00006145,-0
 .00000742,-0.00000945,-0.00000446,0.00000653,-0.00000329,-0.00008074,-
 0.00002913,0.00008619,-0.07350683,-0.00854575,-0.27048345,0.00009393,-
 0.00016793,-0.00022444,-0.00087999,0.00123217,0.00010453,-0.00001292,-
 0.00004636,0.00015328,0.00009616,-0.00000555,-0.00002579,0.00005707,0.
 00001299,0.00003714,0.00000470,0.00007026,-0.00000334,0.00001849,0.000
 01808,0.00002005,-0.00003103,-0.00000357,0.00000270,-0.00001574,0.0000
 0193,-0.00000137,-0.00002270,0.00000779,-0.00001791,0.00001303,0.00000
 053,0.00005790,-0.00620723,-0.00026411,-0.01370670,0.07984810,-0.00490
 633,0.29836166,-0.00024202,0.00100450,0.00066358,0.00005353,-0.0002998
 4,-0.00007300,-0.00047498,-0.00010546,0.00016776,0.00233488,-0.0004129
 2,-0.00025132,-0.00483999,-0.00313143,0.00163778,0.00008037,0.00003457
 ,-0.00008248,0.00000937,-0.00000848,0.00000382,-0.00015861,-0.00002110
 ,0.00003149,0.00015988,-0.00013605,-0.00005008,0.00020988,0.00023034,-
 0.00021886,-0.00011318,0.00010832,-0.00003315,0.00008158,0.00007286,0.
 00006075,0.00003370,-0.00002553,-0.00007109,-0.00007893,-0.00008275,0.
 00001811,0.00017949,0.00010370,0.00015121,-0.31521705,-0.04758848,-0.0
 1111377,-0.00004201,0.00010253,0.00005433,0.00002273,-0.00000055,-0.00
 022001,0.00008749,-0.00004187,-0.00001599,-0.00004454,-0.00000554,-0.0
 0000017,-0.00001968,-0.00001230,0.00000138,-0.00003429,-0.00003623,0.0
 0001246,0.00001909,-0.00005490,-0.00001510,0.00000714,-0.00001348,-0.0
 0000149,0.00000320,0.00000298,-0.00000056,0.00000114,0.00000104,0.0000
 0485,0.00001946,-0.00000010,-0.00000789,-0.01183190,-0.00291497,-0.001
 71558,-0.00723127,-0.00050668,0.00027851,0.33698662,-0.00145341,0.0004
 9865,-0.00028017,0.00019176,0.00031575,0.00001240,-0.00204912,-0.00041
 639,0.00053005,0.00215554,-0.00522015,0.00074774,-0.03613926,-0.010207
 20,0.00353294,0.00024926,-0.00016549,-0.00017066,-0.00017483,0.0000689
 2,0.00005728,-0.00015038,0.00011000,0.00005451,0.00045717,-0.00051037,
 -0.00007762,0.00051524,-0.00065709,0.00007269,0.00021138,0.00000966,-0
 .00007736,-0.00000006,-0.00002211,-0.00005555,-0.00006701,0.00000599,-
 0.00002290,-0.00003974,0.00001072,0.00001274,0.00001670,0.00000299,0.0
 0015304,-0.03902407,-0.05584054,-0.00178700,0.00008637,0.00009149,-0.0
 0000504,0.00014619,-0.00017417,-0.00013256,-0.00008665,0.00029532,-0.0
 0007425,-0.00006253,-0.00001554,0.00000469,-0.00003065,0.00000421,-0.0
 0001052,-0.00014525,-0.00009751,-0.00001375,-0.00001642,0.00002331,0.0
 0001218,-0.00001347,0.00000528,0.00000604,-0.00001037,0.00000151,-0.00
 000412,-0.00000914,-0.00000756,-0.00001322,-0.00000272,0.00000953,-0.0
 0003547,0.02243598,0.00598565,0.00229688,-0.00078540,0.00029783,-0.000
 91777,0.05379577,0.06562390,-0.00001357,-0.00051276,0.00044491,-0.0000
 4930,-0.00010922,-0.00010485,0.00107789,0.00026732,-0.00005194,-0.0006
 0747,0.00278024,0.00038474,0.01894689,0.00358895,-0.00124211,-0.000052
 47,0.00016614,-0.00006161,0.00002209,0.00000249,0.00002444,0.00014844,
 0.00000453,-0.00001996,-0.00021315,0.00026098,0.00000707,0.00007263,0.
 00019057,0.00008577,-0.00012443,0.00003041,-0.00006211,0.00006741,0.00
 000139,0.00005108,0.00000538,-0.00000263,-0.00007086,-0.00007980,-0.00
 001336,-0.00000616,0.00001520,-0.00006259,0.00002802,-0.01625889,-0.00
 184186,-0.05004441,-0.00002401,-0.00006989,-0.00007297,-0.00016238,0.0
 0008028,-0.00010619,-0.00012240,-0.00007638,-0.00000899,0.00004331,0.0
 0000612,-0.00000521,0.00002130,0.00000917,-0.00000515,0.00007440,0.000
 05736,-0.00001744,-0.00000502,-0.00001953,-0.00001522,-0.00000682,0.00
 000678,-0.00000180,-0.00000106,0.00000039,-0.00000372,-0.00000459,0.00
 000106,-0.00000440,0.00001909,-0.00001469,0.00000149,0.01618375,0.0039
 2667,0.00091613,-0.02980040,-0.00489328,0.00021691,0.01082658,-0.00379
 528,0.04970368,-0.00018851,0.00117092,0.00019465,0.00473030,0.00694840
 ,-0.00427447,-0.00030312,0.00020398,-0.00059587,0.00029982,0.00000639,
 0.00001970,-0.00008220,0.00031460,0.00004673,-0.00000706,-0.00005592,0
 .00008554,0.00005937,-0.00005656,-0.00002137,0.00005293,0.00008786,0.0
 0043746,-0.00086829,0.00086275,0.00012641,0.00020611,-0.00007430,0.000
 01667,0.00003352,-0.00006308,-0.00008569,0.00002412,-0.00001834,0.0000
 1431,-0.00001802,0.00000258,-0.00003237,-0.00003226,0.00000503,0.00000
 075,0.00001988,-0.00002314,0.00010494,-0.00000127,0.00005532,0.0000197
 3,-0.11181580,-0.09615158,0.06903783,-0.00011139,-0.00001229,0.0000224
 3,0.00001637,-0.00002017,-0.00001161,-0.00000050,-0.00001141,-0.000078
 98,0.00004038,-0.00000771,-0.00000516,-0.00197913,0.00064045,-0.000050
 97,0.00000045,0.00002453,-0.00001130,-0.00000884,0.00000165,0.00000183
 ,-0.00000517,0.00000368,-0.00000285,-0.00000661,-0.00000069,-0.0000077
 3,-0.00000201,0.00000771,-0.00000269,0.00000837,0.00001380,-0.00000016
 ,0.00000269,-0.00001226,0.00001596,0.00000223,-0.00000309,0.00000717,0
 .11621570,0.00432584,-0.00176260,-0.00283453,-0.01668249,-0.02888323,0
 .01212564,-0.00190301,0.00099035,0.00076616,-0.00051704,-0.00067404,-0
 .00003210,-0.00057316,-0.00171828,0.00077250,-0.00015801,0.00006246,-0
 .00003873,0.00016278,0.00014732,-0.00001693,0.00021381,0.00004097,0.00
 003729,0.00058978,-0.00025358,-0.00009273,0.00043629,0.00003218,0.0001
 8961,-0.00008655,0.00003483,-0.00011968,-0.00006171,0.00003467,0.00000
 230,-0.00006371,-0.00000254,0.00001453,0.00002347,0.00000122,-0.000030
 86,-0.00013211,0.00002896,0.00001345,0.00044962,-0.00009163,-0.0005528
 5,-0.09016303,-0.18553533,0.09834863,0.00001697,0.00002089,0.00017459,
 0.00000155,-0.00001624,0.00001221,0.00001527,0.00002424,-0.00002287,0.
 00001337,-0.00000293,-0.00000273,0.00083508,0.00008972,-0.00007389,0.0
 0001563,-0.00001827,0.00001464,-0.00002877,0.00000139,0.00000059,-0.00
 001190,-0.00000476,-0.00000213,-0.00002299,-0.00000240,-0.00001775,0.0
 0000852,-0.00001242,0.00002189,-0.00001318,-0.00022837,0.00010468,0.00
 000596,-0.00001825,0.00006603,-0.00002546,0.00001408,0.00001261,0.1002
 5672,0.21052773,0.00132619,-0.00216266,-0.00053446,-0.01105091,-0.0154
 9996,0.00922007,0.00002951,0.00074248,0.00067725,-0.00025196,-0.000193
 11,-0.00014360,-0.00030263,-0.00088536,0.00050934,-0.00011924,0.000016
 40,-0.00004259,0.00012229,0.00014077,0.00000153,0.00005682,-0.00024582
 ,-0.00027229,0.00026247,0.00012297,-0.00021400,0.00025400,0.00001370,0
 .00004313,-0.00002191,0.00003520,-0.00007140,-0.00003811,0.00000319,0.
 00000231,-0.00002445,0.00000279,0.00001250,0.00001883,-0.00000899,-0.0
 0001420,-0.00003974,0.00003090,0.00001369,0.00022023,-0.00009587,-0.00
 020563,0.07109220,0.10568872,-0.12504472,-0.00016559,-0.00035322,0.000
 18516,-0.00000823,-0.00000374,0.00000670,0.00001437,-0.00000873,0.0000
 4029,0.00001054,0.00000017,0.00000697,0.00030589,-0.00021943,0.0002340
 9,0.00000077,-0.00001313,0.00001039,-0.00001242,0.00000071,-0.00000044
 ,-0.00000359,-0.00000113,-0.00000023,-0.00000926,0.00000019,-0.0000060
 8,0.00000915,0.00000809,0.00000351,0.00000006,-0.00010482,0.00004089,0
 .00000637,-0.00001210,0.00002704,-0.00000463,0.00001101,0.00000374,-0.
 07493368,-0.10522558,0.12829006,-0.00027928,-0.00099876,0.00065361,-0.
 00491002,0.00315609,0.00165121,0.00232134,0.00042981,-0.00023975,-0.00
 048026,0.00010140,0.00016988,0.00005506,0.00029541,-0.00007319,0.00015
 923,0.00013687,-0.00005085,-0.00015774,0.00002033,0.00002987,0.0000088
 3,0.00000850,0.00000530,0.00008581,-0.00003313,-0.00008298,0.00025324,
 -0.00020115,-0.00024214,-0.00017123,-0.00015448,-0.00003439,0.00009027
 ,-0.00008170,0.00007846,0.00004238,0.00002267,-0.00008726,-0.00010367,
 0.00008455,0.00001410,0.00020180,-0.00008264,0.00017677,-0.00004092,-0
 .00010246,0.00005379,-0.31539921,0.04701774,-0.01089046,0.00002911,-0.
 00000224,-0.00021907,-0.00003452,0.00003623,0.00001204,-0.00001968,0.0
 0001213,0.00000122,-0.00004440,0.00000543,-0.00000016,0.00008545,0.000
 04270,-0.00001689,0.00002153,0.00005582,-0.00002185,0.00000747,0.00001
 665,-0.00000202,0.00000280,-0.00000196,-0.00000095,0.00000058,-0.00000
 244,0.00000466,0.00001712,-0.00000073,-0.00000585,0.00000229,0.0000250
 8,-0.00000444,0.00000149,0.00001946,-0.00002786,0.00003516,0.00001304,
 -0.00000955,-0.01176435,0.00286722,-0.00169839,0.33722899,0.00144656,0
 .00049956,0.00028144,0.03611833,-0.01008587,-0.00355871,-0.00213240,-0
 .00522677,-0.00076102,0.00204893,-0.00040860,-0.00052570,-0.00019552,0
 .00031581,-0.00001006,-0.00045458,-0.00051056,0.00008063,0.00015036,0.
 00011018,-0.00005288,0.00017433,0.00006891,-0.00005784,-0.00024513,-0.
 00016805,0.00016935,-0.00047128,-0.00055702,-0.00006156,-0.00022821,-0
 .00003559,0.00007125,-0.00001343,-0.00001771,0.00004755,0.00006383,0.0
 0000623,0.00003537,0.00005140,0.00000874,-0.00001441,-0.00001827,-0.00
 000164,-0.00015190,-0.00008620,0.00009103,0.00000419,0.03843537,-0.055
 63423,0.00172074,-0.00014406,-0.00017571,0.00013261,0.00014530,-0.0000
 9712,0.00001399,0.00003056,0.00000432,0.00001006,0.00006252,-0.0000153
 2,-0.00000453,0.00008476,0.00029749,0.00007220,0.00001735,0.00002082,-
 0.00001291,0.00001400,0.00000567,-0.00000620,0.00001049,0.00000178,0.0
 0000433,0.00000876,-0.00000766,0.00001358,0.00000207,0.00001050,0.0000
 3439,0.00000293,0.00001389,-0.00001092,0.00001079,-0.00001177,0.000015
 24,-0.00001295,-0.00002896,0.00001567,-0.02250078,0.00594920,-0.002277
 43,-0.05319523,0.06528520,-0.00001124,0.00051221,0.00044048,0.01901682
 ,-0.00356045,-0.00125130,-0.00061197,-0.00278601,0.00038629,0.00108317
 ,-0.00026833,-0.00005338,-0.00004729,0.00010716,-0.00010387,-0.0002140
 9,-0.00026276,0.00000902,0.00014972,-0.00000349,-0.00001899,0.00002253
 ,-0.00000278,0.00002297,-0.00005460,-0.00016483,-0.00005982,0.00005933
 ,-0.00018238,0.00011247,-0.00012257,-0.00001280,-0.00005865,0.00007216
 ,-0.00000370,0.00005406,0.00000572,0.00000110,-0.00007291,-0.00008053,
 0.00001414,-0.00000671,0.00001145,0.00005036,0.00002508,-0.00002434,0.
 00007038,-0.00007430,-0.01604569,0.00176372,-0.05002107,-0.00016079,-0
 .00008413,-0.00010730,0.00007488,-0.00005758,-0.00001714,0.00002151,-0
 .00000918,-0.00000514,0.00004357,-0.00000605,-0.00000526,-0.00012181,0
 .00007494,-0.00000809,-0.00000581,0.00002329,-0.00001589,-0.00000684,-
 0.00000599,-0.00000116,-0.00000125,-0.00000033,-0.00000371,-0.00000487
 ,-0.00000193,-0.00000428,0.00001539,0.00001383,0.00000210,0.00000731,-
 0.00001294,0.00000386,0.00000404,-0.00000240,0.00002496,-0.00000934,-0
 .00001551,0.00001244,0.01616814,-0.00388129,0.00089666,0.01057097,0.00
 386470,0.04965952,-0.00007436,-0.00027595,-0.00036922,0.00344077,0.000
 80232,0.00825893,0.00201821,-0.00041286,0.00197850,0.00046977,0.000339
 54,-0.00041752,-0.00033070,0.00003001,0.00009845,0.00018947,0.00008626
 ,-0.00014021,0.00011305,-0.00038307,0.00002738,-0.00037558,0.00024961,
 -0.00010578,0.00049053,-0.00056145,-0.00078094,-0.00002045,0.00016796,
 -0.00004942,0.00001625,0.00001969,-0.00005071,0.00000420,0.00000059,0.
 00000943,-0.00000284,-0.00000210,-0.00000643,-0.00000511,0.00002837,0.
 00001316,0.00005561,-0.00001287,0.00006542,-0.00002041,0.00004485,-0.0
 0004438,-0.07661428,0.00192818,-0.07374680,-0.00026166,-0.00006334,-0.
 00008338,0.00001403,-0.00002246,0.00002054,0.00000887,-0.00001517,0.00
 001780,0.00002365,0.00001081,-0.00000399,0.00008984,-0.00009934,0.0001
 9023,0.00001225,-0.00001265,0.00001904,-0.00000487,0.00000167,-0.00000
 040,-0.00000117,-0.00000672,0.00000080,-0.00000219,0.00000271,-0.00000
 083,0.00001068,-0.00001133,-0.00000083,0.00000264,-0.00000580,0.000006
 29,0.00001759,0.00000115,0.00001988,0.00000150,-0.00001084,0.00000377,
 0.00548229,0.00020525,0.01495502,-0.00724467,0.00081940,-0.02980366,0.
 07249708,0.00160563,0.00313255,-0.00498940,-0.00424788,-0.01385332,-0.
 03615274,-0.00657932,0.00264779,-0.00051752,0.00022997,-0.00132624,0.0
 0069579,0.00015938,-0.00000826,0.00047559,-0.00058604,0.00009662,0.000
 19079,0.00055087,0.00011707,-0.00011916,-0.00000783,-0.00013689,0.0001
 5167,0.00092186,0.00057677,0.00029319,-0.00006210,-0.00015396,0.000442
 55,-0.00004137,0.00001767,-0.00007833,-0.00004480,0.00001711,-0.000001
 90,-0.00004514,-0.00000450,0.00001767,0.00000748,-0.00000466,0.0000377
 9,-0.00002507,-0.00001611,-0.00002830,0.00009225,0.00010586,0.00003149
 ,0.00173078,-0.04991143,0.00812850,0.00024117,0.00060300,0.00165750,-0
 .00000813,-0.00003415,-0.00004638,0.00002083,-0.00000978,-0.00002675,0
 .00005429,0.00000203,-0.00000546,0.00001509,-0.00005033,-0.00026311,0.
 00000221,0.00000288,0.00001020,-0.00001400,0.00000257,-0.00000039,-0.0
 0000736,0.00000287,0.00000129,-0.00000226,0.00000002,-0.00000622,-0.00
 000432,-0.00000055,0.00006097,0.00001215,-0.00001756,0.00001164,-0.000
 00111,-0.00006511,0.00003335,-0.00001955,-0.00001169,0.00000235,0.0084
 0494,0.00122469,0.02049379,0.00048979,0.00029328,0.00482903,-0.0028424
 4,0.05676175,0.00139974,0.00141098,0.00100320,0.00245625,-0.01588150,-
 0.01640711,-0.00498029,0.00218024,0.00105618,0.00154314,-0.00161220,-0
 .00002916,-0.00048392,0.00025699,0.00033847,-0.00125531,0.00017093,0.0
 0012121,0.00114856,0.00047666,-0.00016435,0.00014083,-0.00059906,-0.00
 017929,0.00053580,0.00029612,-0.00027708,0.00001544,-0.00010417,-0.000
 05450,-0.00007318,-0.00002219,-0.00016854,-0.00004008,0.00001799,0.000
 02226,-0.00006048,0.00000802,-0.00000943,-0.00000381,-0.00000799,-0.00
 000551,-0.00007978,0.00004108,0.00008787,0.00009379,0.00016907,-0.0002
 2500,-0.07359126,0.00874811,-0.27027495,-0.00087721,-0.00122733,0.0001
 1582,0.00000469,-0.00007039,-0.00000309,0.00005705,-0.00001274,0.00003
 638,0.00009599,0.00000575,-0.00002567,-0.00001356,0.00004617,0.0001533
 0,0.00001708,-0.00001817,0.00001940,-0.00003066,0.00000485,0.00000255,
 -0.00001538,-0.00000167,-0.00000139,-0.00002248,-0.00000892,-0.0000173
 8,0.00001035,-0.00000816,0.00005291,0.00001615,-0.00006580,0.00002702,
 0.00002001,-0.00003382,0.00005303,-0.00002809,-0.00001542,0.00002469,-
 0.00620537,0.00026729,-0.01367568,0.00028614,0.00091879,0.00023906,0.0
 7991985,0.00467050,0.29816478\\0.00000118,0.00000064,-0.00000219,0.000
 00337,0.00000074,0.00000788,-0.00000882,0.00000289,-0.00000383,0.00000
 346,-0.00000216,-0.00000253,0.00000137,0.00000419,-0.00000272,-0.00000
 371,-0.00000162,-0.00000121,-0.00000015,-0.00000060,-0.00000342,-0.000
 00030,-0.00000178,-0.00000605,0.00000290,-0.00000144,-0.00000434,-0.00
 000064,0.00000073,0.00000146,0.00000122,0.00000291,0.00000350,0.000000
 11,0.00000090,0.00000526,-0.00000040,0.00000006,0.00000477,-0.00000215
 ,-0.00000194,0.00000346,-0.00000071,-0.00000160,0.00000222,-0.00000338
 ,-0.00000563,0.00000694,0.00000269,-0.00000614,-0.00001009,0.00000161,
 0.00000242,0.00000059,-0.00000011,-0.00000083,0.00000028,-0.00000010,-
 0.00000179,-0.00000395,-0.00000109,-0.00000187,-0.00000759,-0.00000091
 ,-0.00000075,-0.00000697,0.00000212,0.00000322,0.00000267,0.00000178,0
 .00000274,0.00000539,-0.00000115,-0.00000036,0.00000610,-0.00000300,-0
 .00000373,0.00000420,-0.00000247,-0.00000269,0.00000145,0.00000054,0.0
 0000058,0.00000404,0.00000242,0.00000308,0.00000238,0.00000123,0.00000
 287,0.00000423,-0.00000005,0.00000113,-0.00000578,0.00000053,0.0000022
 9,-0.00000234,0.00000260,0.00000351,-0.00000379\\\@
 The archive entry for this job was punched.


 YOU WILL NEVER "FIND" TIME FOR ANYTHING.
 IF YOU WANT TIME, YOU MUST MAKE IT.

                        -- CHARLES BIXTON
 Job cpu time:       0 days  8 hours 34 minutes 36.8 seconds.
 Elapsed time:       0 days  0 hours 45 minutes 54.4 seconds.
 File lengths (MBytes):  RWF=   1143 Int=      0 D2E=      0 Chk=     29 Scr=      1
 Normal termination of Gaussian 16 at Fri Nov 11 13:44:04 2022.
