 Entering Gaussian System, Link 0=g16
 Input=D2h.gau
 Output=D2h.log
 Initial command:
 /apps/gaussian/g16c01/g16/l1.exe "/jobfs/149569174.gadi-pbs/Gau-999432.inp" -scrdir="/jobfs/149569174.gadi-pbs/"
 Default is to use a total of  24 processors:
                               24 via shared-memory
                                1 via Linda
 Entering Link 1 = /apps/gaussian/g16c01/g16/l1.exe PID=    999433.
  
 Copyright (c) 1988-2019, Gaussian, Inc.  All Rights Reserved.
  
 This is part of the Gaussian(R) 16 program.  It is based on
 the Gaussian(R) 09 system (copyright 2009, Gaussian, Inc.),
 the Gaussian(R) 03 system (copyright 2003, Gaussian, Inc.),
 the Gaussian(R) 98 system (copyright 1998, Gaussian, Inc.),
 the Gaussian(R) 94 system (copyright 1995, Gaussian, Inc.),
 the Gaussian 92(TM) system (copyright 1992, Gaussian, Inc.),
 the Gaussian 90(TM) system (copyright 1990, Gaussian, Inc.),
 the Gaussian 88(TM) system (copyright 1988, Gaussian, Inc.),
 the Gaussian 86(TM) system (copyright 1986, Carnegie Mellon
 University), and the Gaussian 82(TM) system (copyright 1983,
 Carnegie Mellon University). Gaussian is a federally registered
 trademark of Gaussian, Inc.
  
 This software contains proprietary and confidential information,
 including trade secrets, belonging to Gaussian, Inc.
  
 This software is provided under written license and may be
 used, copied, transmitted, or stored only in accord with that
 written license.
  
 The following legend is applicable only to US Government
 contracts under FAR:
  
                    RESTRICTED RIGHTS LEGEND
  
 Use, reproduction and disclosure by the US Government is
 subject to restrictions as set forth in subparagraphs (a)
 and (c) of the Commercial Computer Software - Restricted
 Rights clause in FAR 52.227-19.
  
 Gaussian, Inc.
 340 Quinnipiac St., Bldg. 40, Wallingford CT 06492
  
  
 ---------------------------------------------------------------
 Warning -- This program may not be used in any manner that
 competes with the business of Gaussian, Inc. or will provide
 assistance to any competitor of Gaussian, Inc.  The licensee
 of this program is prohibited from giving any competitor of
 Gaussian, Inc. access to this program.  By using this program,
 the user acknowledges that Gaussian, Inc. is engaged in the
 business of creating and licensing software in the field of
 computational chemistry and represents and warrants to the
 licensee that it is not a competitor of Gaussian, Inc. and that
 it will not use this program in any manner prohibited above.
 ---------------------------------------------------------------
  

 Cite this work as:
 Gaussian 16, Revision C.01,
 M. J. Frisch, G. W. Trucks, H. B. Schlegel, G. E. Scuseria, 
 M. A. Robb, J. R. Cheeseman, G. Scalmani, V. Barone, 
 G. A. Petersson, H. Nakatsuji, X. Li, M. Caricato, A. V. Marenich, 
 J. Bloino, B. G. Janesko, R. Gomperts, B. Mennucci, H. P. Hratchian, 
 J. V. Ortiz, A. F. Izmaylov, J. L. Sonnenberg, D. Williams-Young, 
 F. Ding, F. Lipparini, F. Egidi, J. Goings, B. Peng, A. Petrone, 
 T. Henderson, D. Ranasinghe, V. G. Zakrzewski, J. Gao, N. Rega, 
 G. Zheng, W. Liang, M. Hada, M. Ehara, K. Toyota, R. Fukuda, 
 J. Hasegawa, M. Ishida, T. Nakajima, Y. Honda, O. Kitao, H. Nakai, 
 T. Vreven, K. Throssell, J. A. Montgomery, Jr., J. E. Peralta, 
 F. Ogliaro, M. J. Bearpark, J. J. Heyd, E. N. Brothers, K. N. Kudin, 
 V. N. Staroverov, T. A. Keith, R. Kobayashi, J. Normand, 
 K. Raghavachari, A. P. Rendell, J. C. Burant, S. S. Iyengar, 
 J. Tomasi, M. Cossi, J. M. Millam, M. Klene, C. Adamo, R. Cammi, 
 J. W. Ochterski, R. L. Martin, K. Morokuma, O. Farkas, 
 J. B. Foresman, and D. J. Fox, Gaussian, Inc., Wallingford CT, 2019.
 
 ******************************************
 Gaussian 16:  ES64L-G16RevC.01  3-Jul-2019
                12-Sep-2025 
 ******************************************
 %chk=D2h.chk
 Default route: Maxdisk=0MB
 ----------------------------------------------------------------------
 # opt(maxcycles=300) freq scf(maxcycle=300,xqc) UwB97XD/Def2SVPP symme
 try(On,follow,PG=D2h)
 ----------------------------------------------------------------------
 1/6=300,18=20,19=15,26=3,38=1/1,3;
 2/9=110,12=2,15=-1,17=6,18=5,19=2314885530821079620,40=1/2;
 3/5=43,7=202,11=2,25=1,30=1,71=1,74=-58,116=2/1,2,3;
 4//1;
 5/5=2,7=300,8=3,13=1,38=5/2,8;
 6/7=2,8=2,9=2,10=2,28=1/1;
 7/30=1/1,2,3,16;
 1/6=300,18=20,19=15,26=3/3(2);
 2/9=110,15=5,19=2314885530821079620/2;
 99//99;
 2/9=110,15=5,19=2314885530821079620/2;
 3/5=43,7=202,11=2,25=1,30=1,71=1,74=-58,116=2/1,2,3;
 4/5=5,16=3,69=1/1;
 5/5=2,7=300,8=3,13=1,38=5/2,8;
 7/30=1/1,2,3,16;
 1/6=300,18=20,19=15,26=3/3(-5);
 2/9=110,15=5,19=2314885530821079620/2;
 6/7=2,8=2,9=2,10=2,19=2,28=1/1;
 99/9=1/99;
 ---------------------------------------------------------
 Title: Geometrical optimization and frequency calculation
 ---------------------------------------------------------
 Symbolic Z-matrix:
 Charge =  0 Multiplicity = 1
 C                    -0.97469  -0.08502   0. 
 C                     0.24579   0.44651   0. 
 H                    -1.81289   0.46984   0.40911 
 H                    -1.13936  -1.07666  -0.40911 
 H                     0.41046   1.43815   0.40911 
 H                     1.08398  -0.10835  -0.40911 
 

 GradGradGradGradGradGradGradGradGradGradGradGradGradGradGradGradGradGrad
 Berny optimization.
 Initialization pass.
                           ----------------------------
                           !    Initial Parameters    !
                           ! (Angstroms and Degrees)  !
 --------------------------                            --------------------------
 ! Name  Definition              Value          Derivative Info.                !
 --------------------------------------------------------------------------------
 ! R1    R(1,2)                  1.3312         estimate D2E/DX2                !
 ! R2    R(1,3)                  1.0853         estimate D2E/DX2                !
 ! R3    R(1,4)                  1.0853         estimate D2E/DX2                !
 ! R4    R(2,5)                  1.0853         estimate D2E/DX2                !
 ! R5    R(2,6)                  1.0853         estimate D2E/DX2                !
 ! A1    A(2,1,3)              120.2624         estimate D2E/DX2                !
 ! A2    A(2,1,4)              120.2613         estimate D2E/DX2                !
 ! A3    A(3,1,4)              119.4763         estimate D2E/DX2                !
 ! A4    A(1,2,5)              120.2613         estimate D2E/DX2                !
 ! A5    A(1,2,6)              120.2621         estimate D2E/DX2                !
 ! A6    A(5,2,6)              119.4766         estimate D2E/DX2                !
 ! D1    D(3,1,2,5)             -0.0005         estimate D2E/DX2                !
 ! D2    D(3,1,2,6)           -179.9999         estimate D2E/DX2                !
 ! D3    D(4,1,2,5)            180.0            estimate D2E/DX2                !
 ! D4    D(4,1,2,6)              0.0006         estimate D2E/DX2                !
 --------------------------------------------------------------------------------
 Trust Radius=3.00D-01 FncErr=1.00D-07 GrdErr=1.00D-06 EigMax=2.50D+02 EigMin=1.00D-04
 Number of steps in this run=    100 maximum allowed number of steps=    100.
 GradGradGradGradGradGradGradGradGradGradGradGradGradGradGradGradGradGrad

                          Input orientation:                          
 ---------------------------------------------------------------------
 Center     Atomic      Atomic             Coordinates (Angstroms)
 Number     Number       Type             X           Y           Z
 ---------------------------------------------------------------------
      1          6           0       -0.974690   -0.085020    0.000000
      2          6           0        0.245790    0.446510    0.000000
      3          1           0       -1.812890    0.469840    0.409110
      4          1           0       -1.139360   -1.076660   -0.409110
      5          1           0        0.410460    1.438150    0.409110
      6          1           0        1.083980   -0.108350   -0.409110
 ---------------------------------------------------------------------
                    Distance matrix (angstroms):
                    1          2          3          4          5
     1  C    0.000000
     2  C    1.331201   0.000000
     3  H    1.085274   2.099066   0.000000
     4  H    1.085282   2.099061   1.874777   0.000000
     5  H    2.099061   1.085282   2.425059   3.065240   0.000000
     6  H    2.099056   1.085266   3.065231   2.425049   1.874773
                    6
     6  H    0.000000
 Symm:  InNGrp=D2H  InAxis=0 RotPrA=F RotCs=T.
 Stoichiometry    C2H4
 Framework group  C1[X(C2H4)]
 Deg. of freedom    12
 Full point group                 C1      NOp   1
 Largest Abelian subgroup         C1      NOp   1
 Largest concise Abelian subgroup C1      NOp   1
                         Standard orientation:                         
 ---------------------------------------------------------------------
 Center     Atomic      Atomic             Coordinates (Angstroms)
 Number     Number       Type             X           Y           Z
 ---------------------------------------------------------------------
      1          6           0        0.665600    0.000002    0.000001
      2          6           0       -0.665601   -0.000003   -0.000001
      3          1           0        1.212532    0.937384   -0.000001
      4          1           0        1.212525   -0.937393   -0.000002
      5          1           0       -1.212526    0.937392    0.000002
      6          1           0       -1.212524   -0.937381    0.000003
 ---------------------------------------------------------------------
 Rotational constants (GHZ):         142.6703232          30.5190166          25.1410275
 Standard basis: def2SVPP (5D, 7F)
 There are    38 symmetry adapted cartesian basis functions of A   symmetry.
 There are    36 symmetry adapted basis functions of A   symmetry.
    36 basis functions,    66 primitive gaussians,    38 cartesian basis functions
     8 alpha electrons        8 beta electrons
       nuclear repulsion energy        33.4096666605 Hartrees.
 NAtoms=    6 NActive=    6 NUniq=    6 SFac= 1.00D+00 NAtFMM=   60 NAOKFM=F Big=F
 Integral buffers will be    131072 words long.
 Raffenetti 2 integral format.
 Two-electron integral symmetry is turned on.
 Nuclear repulsion after empirical dispersion term =       33.4088151872 Hartrees.
 One-electron integrals computed using PRISM.
   1 Symmetry operations used in ECPInt.
 ECPInt:  NShTT=     210 NPrTT=     858 LenC2=     211 LenP2D=     801.
 LDataN:  DoStor=T MaxTD1= 4 Len=   56
 NBasis=    36 RedAO= T EigKep=  4.52D-03  NBF=    36
 NBsUse=    36 1.00D-06 EigRej= -1.00D+00 NBFU=    36
 ExpMin= 1.22D-01 ExpMax= 1.24D+03 ExpMxC= 1.86D+02 IAcc=3 IRadAn=         5 AccDes= 0.00D+00
 Harris functional with IExCor= 4639 and IRadAn=       5 diagonalized for initial guess.
 HarFok:  IExCor= 4639 AccDes= 0.00D+00 IRadAn=         5 IDoV= 1 UseB2=F ITyADJ=14
 ICtDFT=  3500011 ScaDFX=  1.000000  1.000000  1.000000  1.000000
 FoFCou: FMM=F IPFlag=           0 FMFlag=      100000 FMFlg1=           0
         NFxFlg=           0 DoJE=T BraDBF=F KetDBF=T FulRan=T
         wScrn=  0.000000 ICntrl=       500 IOpCl=  0 I1Cent=   200000004 NGrid=           0
         NMat0=    1 NMatS0=      1 NMatT0=    0 NMatD0=    1 NMtDS0=    0 NMtDT0=    0
 Petite list used in FoFCou.
 Initial guess <Sx>= 0.0000 <Sy>= 0.0000 <Sz>= 0.0000 <S**2>=-0.0000 S=-0.0000
 Keep R1 and R2 ints in memory in canonical form, NReq=21655520.
 Requested convergence on RMS density matrix=1.00D-08 within 128 cycles.
 Requested convergence on MAX density matrix=1.00D-06.
 Requested convergence on             energy=1.00D-06.
 No special actions if energy rises.
 Integral accuracy reduced to 1.0D-05 until final iterations.
 Initial convergence to 1.0D-05 achieved.  Increase integral accuracy.
 SCF Done:  E(UwB97XD) =  -78.4908103837     A.U. after   12 cycles
            NFock= 12  Conv=0.69D-08     -V/T= 2.0108
 <Sx>= 0.0000 <Sy>= 0.0000 <Sz>= 0.0000 <S**2>=-0.0000 S=-0.0000
 <L.S>= 0.000000000000E+00
 Annihilation of the first spin contaminant:
 S**2 before annihilation    -0.0000,   after    -0.0000
 QCSCF skips out because SCF is already converged.

 **********************************************************************

            Population analysis using the SCF Density.

 **********************************************************************

 Orbital symmetries:
 Alpha Orbitals:
       Occupied  (A) (A) (A) (A) (A) (A) (A) (A)
       Virtual   (A) (A) (A) (A) (A) (A) (A) (A) (A) (A) (A) (A)
                 (A) (A) (A) (A) (A) (A) (A) (A) (A) (A) (A) (A)
                 (A) (A) (A) (A)
 Beta  Orbitals:
       Occupied  (A) (A) (A) (A) (A) (A) (A) (A)
       Virtual   (A) (A) (A) (A) (A) (A) (A) (A) (A) (A) (A) (A)
                 (A) (A) (A) (A) (A) (A) (A) (A) (A) (A) (A) (A)
                 (A) (A) (A) (A)
 The electronic state is 1-A.
 Alpha  occ. eigenvalues --  -10.29230 -10.29149  -0.85233  -0.66439  -0.56293
 Alpha  occ. eigenvalues --   -0.50064  -0.44221  -0.35595
 Alpha virt. eigenvalues --    0.08530   0.16721   0.18865   0.20500   0.27437
 Alpha virt. eigenvalues --    0.40567   0.48618   0.51801   0.54206   0.57800
 Alpha virt. eigenvalues --    0.63742   0.67088   0.76788   0.78428   0.79604
 Alpha virt. eigenvalues --    0.83111   0.92168   1.19918   1.54023   1.61410
 Alpha virt. eigenvalues --    1.90407   1.93043   1.96266   2.11829   2.28699
 Alpha virt. eigenvalues --    2.45648   2.68901   2.77692
  Beta  occ. eigenvalues --  -10.29230 -10.29149  -0.85233  -0.66439  -0.56293
  Beta  occ. eigenvalues --   -0.50064  -0.44221  -0.35595
  Beta virt. eigenvalues --    0.08530   0.16721   0.18865   0.20500   0.27437
  Beta virt. eigenvalues --    0.40567   0.48618   0.51801   0.54206   0.57800
  Beta virt. eigenvalues --    0.63742   0.67088   0.76788   0.78428   0.79604
  Beta virt. eigenvalues --    0.83111   0.92168   1.19918   1.54023   1.61410
  Beta virt. eigenvalues --    1.90407   1.93043   1.96266   2.11829   2.28699
  Beta virt. eigenvalues --    2.45648   2.68901   2.77692
          Condensed to atoms (all electrons):
               1          2          3          4          5          6
     1  C    4.805977   0.734337   0.382385   0.382383  -0.023668  -0.023667
     2  C    0.734337   4.805972  -0.023667  -0.023668   0.382384   0.382385
     3  H    0.382385  -0.023667   0.558176  -0.038843  -0.013859   0.006937
     4  H    0.382383  -0.023668  -0.038843   0.558178   0.006937  -0.013860
     5  H   -0.023668   0.382384  -0.013859   0.006937   0.558177  -0.038843
     6  H   -0.023667   0.382385   0.006937  -0.013860  -0.038843   0.558176
          Atomic-Atomic Spin Densities.
               1          2          3          4          5          6
     1  C    0.000000   0.000000   0.000000   0.000000   0.000000   0.000000
     2  C    0.000000   0.000000   0.000000   0.000000   0.000000   0.000000
     3  H    0.000000   0.000000   0.000000   0.000000   0.000000   0.000000
     4  H    0.000000   0.000000   0.000000   0.000000   0.000000   0.000000
     5  H    0.000000   0.000000   0.000000   0.000000   0.000000   0.000000
     6  H    0.000000   0.000000   0.000000   0.000000   0.000000   0.000000
 Mulliken charges and spin densities:
               1          2
     1  C   -0.257747   0.000000
     2  C   -0.257743   0.000000
     3  H    0.128873   0.000000
     4  H    0.128873   0.000000
     5  H    0.128873   0.000000
     6  H    0.128871   0.000000
 Sum of Mulliken charges =  -0.00000   0.00000
 Mulliken charges and spin densities with hydrogens summed into heavy atoms:
               1          2
     1  C   -0.000002   0.000000
     2  C    0.000002   0.000000
 Electronic spatial extent (au):  <R**2>=             81.9934
 Charge=             -0.0000 electrons
 Dipole moment (field-independent basis, Debye):
    X=             -0.0000    Y=             -0.0000    Z=              0.0000  Tot=              0.0000
 Quadrupole moment (field-independent basis, Debye-Ang):
   XX=            -12.3381   YY=            -12.0491   ZZ=            -15.2322
   XY=              0.0000   XZ=             -0.0000   YZ=             -0.0000
 Traceless Quadrupole moment (field-independent basis, Debye-Ang):
   XX=              0.8684   YY=              1.1573   ZZ=             -2.0257
   XY=              0.0000   XZ=             -0.0000   YZ=             -0.0000
 Octapole moment (field-independent basis, Debye-Ang**2):
  XXX=             -0.0000  YYY=             -0.0000  ZZZ=              0.0000  XYY=             -0.0000
  XXY=              0.0000  XXZ=              0.0000  XZZ=             -0.0000  YZZ=             -0.0000
  YYZ=              0.0000  XYZ=              0.0000
 Hexadecapole moment (field-independent basis, Debye-Ang**3):
 XXXX=            -66.7302 YYYY=            -25.8325 ZZZZ=            -16.6761 XXXY=              0.0001
 XXXZ=             -0.0000 YYYX=              0.0000 YYYZ=             -0.0000 ZZZX=             -0.0000
 ZZZY=             -0.0000 XXYY=            -13.1320 XXZZ=            -14.5473 YYZZ=             -7.6837
 XXYZ=             -0.0000 YYXZ=             -0.0000 ZZXY=              0.0000
 N-N= 3.340881518721D+01 E-N=-2.479291052924D+02  KE= 7.765596577508D+01
                          Isotropic Fermi Contact Couplings
        Atom                 a.u.       MegaHertz       Gauss      10(-4) cm-1
     1  C(13)              0.00000       0.00000       0.00000       0.00000
     2  C(13)              0.00000       0.00000       0.00000       0.00000
     3  H(1)               0.00000       0.00000       0.00000       0.00000
     4  H(1)               0.00000       0.00000       0.00000       0.00000
     5  H(1)               0.00000       0.00000       0.00000       0.00000
     6  H(1)               0.00000       0.00000       0.00000       0.00000
 --------------------------------------------------------
       Center         ----  Spin Dipole Couplings  ----
                      3XX-RR        3YY-RR        3ZZ-RR
 --------------------------------------------------------
     1   Atom        0.000000      0.000000      0.000000
     2   Atom        0.000000      0.000000      0.000000
     3   Atom        0.000000      0.000000      0.000000
     4   Atom        0.000000      0.000000      0.000000
     5   Atom        0.000000      0.000000      0.000000
     6   Atom        0.000000      0.000000      0.000000
 --------------------------------------------------------
                        XY            XZ            YZ
 --------------------------------------------------------
     1   Atom        0.000000      0.000000      0.000000
     2   Atom        0.000000      0.000000      0.000000
     3   Atom        0.000000      0.000000      0.000000
     4   Atom        0.000000      0.000000      0.000000
     5   Atom        0.000000      0.000000      0.000000
     6   Atom        0.000000      0.000000      0.000000
 --------------------------------------------------------


 ---------------------------------------------------------------------------------
              Anisotropic Spin Dipole Couplings in Principal Axis System
 ---------------------------------------------------------------------------------

       Atom             a.u.   MegaHertz   Gauss  10(-4) cm-1        Axes

              Baa     0.0000     0.000     0.000     0.000  1.0000  0.0000  0.0000
     1 C(13)  Bbb     0.0000     0.000     0.000     0.000 -0.0000  1.0000  0.0000
              Bcc     0.0000     0.000     0.000     0.000  0.0000  0.0000  1.0000
 
              Baa     0.0000     0.000     0.000     0.000  1.0000  0.0000  0.0000
     2 C(13)  Bbb     0.0000     0.000     0.000     0.000 -0.0000  1.0000  0.0000
              Bcc     0.0000     0.000     0.000     0.000  0.0000  0.0000  1.0000
 
              Baa     0.0000     0.000     0.000     0.000  1.0000  0.0000  0.0000
     3 H(1)   Bbb     0.0000     0.000     0.000     0.000 -0.0000  1.0000  0.0000
              Bcc     0.0000     0.000     0.000     0.000  0.0000  0.0000  1.0000
 
              Baa     0.0000     0.000     0.000     0.000  1.0000  0.0000  0.0000
     4 H(1)   Bbb     0.0000     0.000     0.000     0.000 -0.0000  1.0000  0.0000
              Bcc     0.0000     0.000     0.000     0.000  0.0000  0.0000  1.0000
 
              Baa     0.0000     0.000     0.000     0.000  1.0000  0.0000  0.0000
     5 H(1)   Bbb     0.0000     0.000     0.000     0.000 -0.0000  1.0000  0.0000
              Bcc     0.0000     0.000     0.000     0.000  0.0000  0.0000  1.0000
 
              Baa     0.0000     0.000     0.000     0.000  1.0000  0.0000  0.0000
     6 H(1)   Bbb     0.0000     0.000     0.000     0.000 -0.0000  1.0000  0.0000
              Bcc     0.0000     0.000     0.000     0.000  0.0000  0.0000  1.0000
 

 ---------------------------------------------------------------------------------

   1 Symmetry operations used in ECPInt.
 ECPInt:  NShTT=     210 NPrTT=     858 LenC2=     211 LenP2D=     801.
 LDataN:  DoStor=T MaxTD1= 5 Len=  102
 Calling FoFJK, ICntrl=      2127 FMM=F ISym2X=0 I1Cent= 0 IOpClX= 1 NMat=1 NMatS=1 NMatT=0.
 ***** Axes restored to original set *****
 -------------------------------------------------------------------
 Center     Atomic                   Forces (Hartrees/Bohr)
 Number     Number              X              Y              Z
 -------------------------------------------------------------------
      1        6           0.009411932    0.004092111   -0.000002303
      2        6          -0.009416740   -0.004089530    0.000004283
      3        1          -0.008309009    0.001031022    0.002067705
      4        1          -0.004904962   -0.006780719   -0.002065764
      5        1           0.004905111    0.006780651    0.002065680
      6        1           0.008313668   -0.001033535   -0.002069602
 -------------------------------------------------------------------
 Cartesian Forces:  Max     0.009416740 RMS     0.005313422

 GradGradGradGradGradGradGradGradGradGradGradGradGradGradGradGradGradGrad
 Berny optimization.
 FormGI is forming the generalized inverse of G from B-inverse, IUseBI=4.
 Internal  Forces:  Max     0.007729526 RMS     0.004749293
 Search for a local minimum.
 Step number   1 out of a maximum of  100
 All quantities printed in internal units (Hartrees-Bohrs-Radians)
 Mixed Optimization -- RFO/linear search
 Second derivative matrix not updated -- first step.
 The second derivative matrix:
                          R1        R2        R3        R4        R5
           R1           0.59223
           R2           0.00000   0.35365
           R3           0.00000   0.00000   0.35364
           R4           0.00000   0.00000   0.00000   0.35364
           R5           0.00000   0.00000   0.00000   0.00000   0.35365
           A1           0.00000   0.00000   0.00000   0.00000   0.00000
           A2           0.00000   0.00000   0.00000   0.00000   0.00000
           A3           0.00000   0.00000   0.00000   0.00000   0.00000
           A4           0.00000   0.00000   0.00000   0.00000   0.00000
           A5           0.00000   0.00000   0.00000   0.00000   0.00000
           A6           0.00000   0.00000   0.00000   0.00000   0.00000
           D1           0.00000   0.00000   0.00000   0.00000   0.00000
           D2           0.00000   0.00000   0.00000   0.00000   0.00000
           D3           0.00000   0.00000   0.00000   0.00000   0.00000
           D4           0.00000   0.00000   0.00000   0.00000   0.00000
                          A1        A2        A3        A4        A5
           A1           0.16000
           A2           0.00000   0.16000
           A3           0.00000   0.00000   0.16000
           A4           0.00000   0.00000   0.00000   0.16000
           A5           0.00000   0.00000   0.00000   0.00000   0.16000
           A6           0.00000   0.00000   0.00000   0.00000   0.00000
           D1           0.00000   0.00000   0.00000   0.00000   0.00000
           D2           0.00000   0.00000   0.00000   0.00000   0.00000
           D3           0.00000   0.00000   0.00000   0.00000   0.00000
           D4           0.00000   0.00000   0.00000   0.00000   0.00000
                          A6        D1        D2        D3        D4
           A6           0.16000
           D1           0.00000   0.02999
           D2           0.00000   0.00000   0.02999
           D3           0.00000   0.00000   0.00000   0.02999
           D4           0.00000   0.00000   0.00000   0.00000   0.02999
 ITU=  0
     Eigenvalues ---    0.02999   0.02999   0.02999   0.16000   0.16000
     Eigenvalues ---    0.16000   0.16000   0.35364   0.35364   0.35365
     Eigenvalues ---    0.35365   0.59223
 RFO step:  Lambda=-1.21347023D-03 EMin= 2.99883733D-02
 Linear search not attempted -- first point.
 Iteration  1 RMS(Cart)=  0.02241247 RMS(Int)=  0.00020731
 Iteration  2 RMS(Cart)=  0.00023073 RMS(Int)=  0.00000003
 Iteration  3 RMS(Cart)=  0.00000003 RMS(Int)=  0.00000000
 Variable       Old X    -DE/DX   Delta X   Delta X   Delta X     New X
                                 (Linear)    (Quad)   (Total)
    R1        2.51560   0.00415   0.00000   0.00699   0.00699   2.52259
    R2        2.05087   0.00772   0.00000   0.02177   0.02177   2.07264
    R3        2.05089   0.00772   0.00000   0.02175   0.02175   2.07264
    R4        2.05089   0.00772   0.00000   0.02175   0.02175   2.07264
    R5        2.05086   0.00773   0.00000   0.02178   0.02178   2.07264
    A1        2.09898   0.00262   0.00000   0.01626   0.01626   2.11524
    A2        2.09896   0.00262   0.00000   0.01628   0.01628   2.11523
    A3        2.08525  -0.00525   0.00000  -0.03254  -0.03254   2.05271
    A4        2.09896   0.00262   0.00000   0.01628   0.01628   2.11523
    A5        2.09897   0.00262   0.00000   0.01627   0.01627   2.11524
    A6        2.08526  -0.00525   0.00000  -0.03255  -0.03255   2.05271
    D1       -0.00001   0.00000   0.00000   0.00001   0.00001   0.00000
    D2       -3.14159  -0.00000   0.00000  -0.00000  -0.00000   3.14159
    D3        3.14159   0.00000   0.00000   0.00000   0.00000  -3.14159
    D4        0.00001  -0.00000   0.00000  -0.00001  -0.00001  -0.00000
         Item               Value     Threshold  Converged?
 Maximum Force            0.007730     0.000450     NO 
 RMS     Force            0.004749     0.000300     NO 
 Maximum Displacement     0.040411     0.001800     NO 
 RMS     Displacement     0.022489     0.001200     NO 
 Predicted change in Energy=-6.098419D-04
 GradGradGradGradGradGradGradGradGradGradGradGradGradGradGradGradGradGrad

                          Input orientation:                          
 ---------------------------------------------------------------------
 Center     Atomic      Atomic             Coordinates (Angstroms)
 Number     Number       Type             X           Y           Z
 ---------------------------------------------------------------------
      1          6           0       -0.976385   -0.085762    0.000001
      2          6           0        0.247482    0.447253   -0.000001
      3          1           0       -1.834268    0.461343    0.409472
      4          1           0       -1.160145   -1.086521   -0.409471
      5          1           0        0.431241    1.448012    0.409471
      6          1           0        1.105365   -0.099854   -0.409472
 ---------------------------------------------------------------------
                    Distance matrix (angstroms):
                    1          2          3          4          5
     1  C    0.000000
     2  C    1.334899   0.000000
     3  H    1.096792   2.121686   0.000000
     4  H    1.096793   2.121684   1.876431   0.000000
     5  H    2.121683   1.096792   2.471042   3.102746   0.000000
     6  H    2.121685   1.096793   3.102749   2.471042   1.876432
                    6
     6  H    0.000000
 Stoichiometry    C2H4
 Framework group  C1[X(C2H4)]
 Deg. of freedom    12
 Prev. full point group           C1      NOp   1
 Prev. largest Abelian subgroup   C1      NOp   1
       concise Abelian subgroup   C1      NOp   1
                   Standard orientation:
 ---------------------------------------------------------------------
 Center     Atomic                     Coordinates (Angstroms)
 Number     Number                        X           Y           Z
 ---------------------------------------------------------------------
      1          6                    0.666892    0.025015    0.010894
      2          6                   -0.666892   -0.025015   -0.010894
      3          1                    1.199983    0.983088   -0.018468
      4          1                    1.268994   -0.890480    0.058802
      5          1                   -1.268993    0.890481   -0.058802
      6          1                   -1.199982   -0.983089    0.018467
 ---------------------------------------------------------------------
 Rotational constants (GHZ):         142.4185819          30.0007158          24.7806334
 Standard basis: def2SVPP (5D, 7F)
 There are    38 symmetry adapted cartesian basis functions of A   symmetry.
 There are    36 symmetry adapted basis functions of A   symmetry.
    36 basis functions,    66 primitive gaussians,    38 cartesian basis functions
     8 alpha electrons        8 beta electrons
       nuclear repulsion energy        33.1698321462 Hartrees.
 NAtoms=    6 NActive=    6 NUniq=    6 SFac= 1.00D+00 NAtFMM=   60 NAOKFM=F Big=F
 Integral buffers will be    131072 words long.
 Raffenetti 2 integral format.
 Two-electron integral symmetry is turned on.
 Nuclear repulsion after empirical dispersion term =       33.1689848101 Hartrees.
 One-electron integrals computed using PRISM.
   1 Symmetry operations used in ECPInt.
 ECPInt:  NShTT=     210 NPrTT=     858 LenC2=     211 LenP2D=     801.
 LDataN:  DoStor=T MaxTD1= 4 Len=   56
 NBasis=    36 RedAO= T EigKep=  4.69D-03  NBF=    36
 NBsUse=    36 1.00D-06 EigRej= -1.00D+00 NBFU=    36
 Initial guess from the checkpoint file:  "D2h.chk"
 B after Tr=     0.000000    0.000000   -0.000000
         Rot=    0.999582    0.020439    0.008544   -0.018572 Ang=   3.31 deg.
 Initial guess <Sx>= 0.0000 <Sy>= 0.0000 <Sz>= 0.0000 <S**2>= 0.0000 S= 0.0000
 ExpMin= 1.22D-01 ExpMax= 1.24D+03 ExpMxC= 1.86D+02 IAcc=3 IRadAn=         5 AccDes= 0.00D+00
 Harris functional with IExCor= 4639 and IRadAn=       5 diagonalized for initial guess.
 HarFok:  IExCor= 4639 AccDes= 0.00D+00 IRadAn=         5 IDoV= 1 UseB2=F ITyADJ=14
 ICtDFT=  3500011 ScaDFX=  1.000000  1.000000  1.000000  1.000000
 FoFCou: FMM=F IPFlag=           0 FMFlag=      100000 FMFlg1=           0
         NFxFlg=           0 DoJE=T BraDBF=F KetDBF=T FulRan=T
         wScrn=  0.000000 ICntrl=       500 IOpCl=  0 I1Cent=   200000004 NGrid=           0
         NMat0=    1 NMatS0=      1 NMatT0=    0 NMatD0=    1 NMtDS0=    0 NMtDT0=    0
 Petite list used in FoFCou.
 Keep R1 and R2 ints in memory in canonical form, NReq=21655520.
 Requested convergence on RMS density matrix=1.00D-08 within 128 cycles.
 Requested convergence on MAX density matrix=1.00D-06.
 Requested convergence on             energy=1.00D-06.
 No special actions if energy rises.
 Integral accuracy reduced to 1.0D-05 until final iterations.
 Initial convergence to 1.0D-05 achieved.  Increase integral accuracy.
 SCF Done:  E(UwB97XD) =  -78.4914717311     A.U. after   10 cycles
            NFock= 10  Conv=0.66D-08     -V/T= 2.0117
 <Sx>= 0.0000 <Sy>= 0.0000 <Sz>= 0.0000 <S**2>=-0.0000 S=-0.0000
 <L.S>= 0.000000000000E+00
 Annihilation of the first spin contaminant:
 S**2 before annihilation    -0.0000,   after    -0.0000
 QCSCF skips out because SCF is already converged.
   1 Symmetry operations used in ECPInt.
 ECPInt:  NShTT=     210 NPrTT=     858 LenC2=     211 LenP2D=     801.
 LDataN:  DoStor=T MaxTD1= 5 Len=  102
 Calling FoFJK, ICntrl=      2127 FMM=F ISym2X=0 I1Cent= 0 IOpClX= 1 NMat=1 NMatS=1 NMatT=0.
 ***** Axes restored to original set *****
 -------------------------------------------------------------------
 Center     Atomic                   Forces (Hartrees/Bohr)
 Number     Number              X              Y              Z
 -------------------------------------------------------------------
      1        6           0.004409836    0.001922413   -0.000003727
      2        6          -0.004409970   -0.001922750    0.000003675
      3        1          -0.000539261   -0.001000626   -0.000340111
      4        1          -0.001098016    0.000284759    0.000343542
      5        1           0.001098191   -0.000284721   -0.000343589
      6        1           0.000539220    0.001000925    0.000340209
 -------------------------------------------------------------------
 Cartesian Forces:  Max     0.004409970 RMS     0.001698253

 GradGradGradGradGradGradGradGradGradGradGradGradGradGradGradGradGradGrad
 Berny optimization.
 Using GEDIIS/GDIIS optimizer.
 FormGI is forming the generalized inverse of G from B-inverse, IUseBI=4.
 Internal  Forces:  Max     0.003023712 RMS     0.001068543
 Search for a local minimum.
 Step number   2 out of a maximum of  100
 All quantities printed in internal units (Hartrees-Bohrs-Radians)
 Mixed Optimization -- RFO/linear search
 Update second derivatives using D2CorX and points    1    2
 DE= -6.61D-04 DEPred=-6.10D-04 R= 1.08D+00
 TightC=F SS=  1.41D+00  RLast= 7.16D-02 DXNew= 5.0454D-01 2.1467D-01
 Trust test= 1.08D+00 RLast= 7.16D-02 DXMaxT set to 3.00D-01
 The second derivative matrix:
                          R1        R2        R3        R4        R5
           R1           0.62501
           R2           0.02554   0.36198
           R3           0.02553   0.00833   0.36196
           R4           0.02553   0.00833   0.00833   0.36196
           R5           0.02556   0.00834   0.00834   0.00834   0.36200
           A1           0.00297  -0.00345  -0.00345  -0.00345  -0.00345
           A2           0.00298  -0.00345  -0.00344  -0.00344  -0.00345
           A3          -0.00594   0.00690   0.00689   0.00689   0.00690
           A4           0.00297  -0.00345  -0.00344  -0.00344  -0.00345
           A5           0.00297  -0.00345  -0.00345  -0.00345  -0.00345
           A6          -0.00594   0.00690   0.00689   0.00689   0.00690
           D1           0.00002   0.00002   0.00002   0.00002   0.00002
           D2          -0.00000  -0.00000  -0.00000  -0.00000  -0.00000
           D3           0.00000   0.00000   0.00000   0.00000   0.00000
           D4          -0.00002  -0.00002  -0.00002  -0.00002  -0.00002
                          A1        A2        A3        A4        A5
           A1           0.15740
           A2          -0.00260   0.15740
           A3           0.00520   0.00520   0.14959
           A4          -0.00260  -0.00260   0.00520   0.15740
           A5          -0.00260  -0.00260   0.00520  -0.00260   0.15740
           A6           0.00520   0.00520  -0.01041   0.00520   0.00520
           D1           0.00000   0.00000  -0.00001   0.00000   0.00000
           D2          -0.00000  -0.00000   0.00000  -0.00000  -0.00000
           D3           0.00000   0.00000  -0.00000   0.00000   0.00000
           D4          -0.00000  -0.00000   0.00001  -0.00000  -0.00000
                          A6        D1        D2        D3        D4
           A6           0.14959
           D1          -0.00001   0.02999
           D2           0.00000  -0.00000   0.02999
           D3          -0.00000   0.00000  -0.00000   0.02999
           D4           0.00001  -0.00000   0.00000  -0.00000   0.02999
 ITU=  1  0
 Use linear search instead of GDIIS.
     Eigenvalues ---    0.02999   0.02999   0.02999   0.12613   0.16000
     Eigenvalues ---    0.16000   0.16000   0.35364   0.35364   0.35365
     Eigenvalues ---    0.37907   0.63557
 RFO step:  Lambda=-6.60754629D-05 EMin= 2.99883732D-02
 Quartic linear search produced a step of  0.11161.
 Iteration  1 RMS(Cart)=  0.00591800 RMS(Int)=  0.00002290
 Iteration  2 RMS(Cart)=  0.00002292 RMS(Int)=  0.00000000
 Iteration  3 RMS(Cart)=  0.00000000 RMS(Int)=  0.00000000
 Variable       Old X    -DE/DX   Delta X   Delta X   Delta X     New X
                                 (Linear)    (Quad)   (Total)
    R1        2.52259  -0.00302   0.00078  -0.00607  -0.00529   2.51730
    R2        2.07264  -0.00020   0.00243  -0.00187   0.00056   2.07320
    R3        2.07264  -0.00020   0.00243  -0.00187   0.00056   2.07320
    R4        2.07264  -0.00020   0.00243  -0.00187   0.00056   2.07320
    R5        2.07264  -0.00020   0.00243  -0.00187   0.00056   2.07320
    A1        2.11524   0.00081   0.00182   0.00472   0.00653   2.12177
    A2        2.11523   0.00081   0.00182   0.00472   0.00653   2.12177
    A3        2.05271  -0.00161  -0.00363  -0.00943  -0.01307   2.03965
    A4        2.11523   0.00081   0.00182   0.00472   0.00653   2.12177
    A5        2.11524   0.00081   0.00182   0.00472   0.00653   2.12177
    A6        2.05271  -0.00161  -0.00363  -0.00944  -0.01307   2.03965
    D1        0.00000  -0.00000   0.00000  -0.00008  -0.00008  -0.00008
    D2        3.14159   0.00000  -0.00000   0.00000   0.00000  -3.14159
    D3       -3.14159  -0.00000   0.00000  -0.00000  -0.00000   3.14159
    D4       -0.00000   0.00000  -0.00000   0.00008   0.00008   0.00008
         Item               Value     Threshold  Converged?
 Maximum Force            0.003024     0.000450     NO 
 RMS     Force            0.001069     0.000300     NO 
 Maximum Displacement     0.010800     0.001800     NO 
 RMS     Displacement     0.005921     0.001200     NO 
 Predicted change in Energy=-3.898615D-05
 GradGradGradGradGradGradGradGradGradGradGradGradGradGradGradGradGradGrad

                          Input orientation:                          
 ---------------------------------------------------------------------
 Center     Atomic      Atomic             Coordinates (Angstroms)
 Number     Number       Type             X           Y           Z
 ---------------------------------------------------------------------
      1          6           0       -0.975104   -0.085196   -0.000015
      2          6           0        0.246201    0.446686    0.000015
      3          1           0       -1.837484    0.456526    0.407958
      4          1           0       -1.165860   -1.085598   -0.407948
      5          1           0        0.436957    1.447088    0.407948
      6          1           0        1.108581   -0.095036   -0.407958
 ---------------------------------------------------------------------
                    Distance matrix (angstroms):
                    1          2          3          4          5
     1  C    0.000000
     2  C    1.332098   0.000000
     3  H    1.097088   2.123266   0.000000
     4  H    1.097088   2.123263   1.869472   0.000000
     5  H    2.123262   1.097088   2.480785   3.106317   0.000000
     6  H    2.123266   1.097089   3.106323   2.480785   1.869473
                    6
     6  H    0.000000
 Stoichiometry    C2H4
 Framework group  C1[X(C2H4)]
 Deg. of freedom    12
 Prev. full point group           C1      NOp   1
 Prev. largest Abelian subgroup   C1      NOp   1
       concise Abelian subgroup   C1      NOp   1
                   Standard orientation:
 ---------------------------------------------------------------------
 Center     Atomic                     Coordinates (Angstroms)
 Number     Number                        X           Y           Z
 ---------------------------------------------------------------------
      1          6                    0.665492    0.024966    0.010883
      2          6                   -0.665492   -0.024966   -0.010883
      3          1                    1.204975    0.979801   -0.018264
      4          1                    1.273737   -0.886819    0.058728
      5          1                   -1.273736    0.886819   -0.058728
      6          1                   -1.204975   -0.979802    0.018264
 ---------------------------------------------------------------------
 Rotational constants (GHZ):         143.4808344          29.9939487          24.8079675
 Standard basis: def2SVPP (5D, 7F)
 There are    38 symmetry adapted cartesian basis functions of A   symmetry.
 There are    36 symmetry adapted basis functions of A   symmetry.
    36 basis functions,    66 primitive gaussians,    38 cartesian basis functions
     8 alpha electrons        8 beta electrons
       nuclear repulsion energy        33.1922924796 Hartrees.
 NAtoms=    6 NActive=    6 NUniq=    6 SFac= 1.00D+00 NAtFMM=   60 NAOKFM=F Big=F
 Integral buffers will be    131072 words long.
 Raffenetti 2 integral format.
 Two-electron integral symmetry is turned on.
 Nuclear repulsion after empirical dispersion term =       33.1914509126 Hartrees.
 One-electron integrals computed using PRISM.
   1 Symmetry operations used in ECPInt.
 ECPInt:  NShTT=     210 NPrTT=     858 LenC2=     211 LenP2D=     801.
 LDataN:  DoStor=T MaxTD1= 4 Len=   56
 NBasis=    36 RedAO= T EigKep=  4.68D-03  NBF=    36
 NBsUse=    36 1.00D-06 EigRej= -1.00D+00 NBFU=    36
 Initial guess from the checkpoint file:  "D2h.chk"
 B after Tr=    -0.000000    0.000000    0.000000
         Rot=    1.000000    0.000002    0.000001   -0.000002 Ang=   0.00 deg.
 Initial guess <Sx>= 0.0000 <Sy>= 0.0000 <Sz>= 0.0000 <S**2>=-0.0000 S=-0.0000
 Keep R1 and R2 ints in memory in canonical form, NReq=21655520.
 Requested convergence on RMS density matrix=1.00D-08 within 128 cycles.
 Requested convergence on MAX density matrix=1.00D-06.
 Requested convergence on             energy=1.00D-06.
 No special actions if energy rises.
 SCF Done:  E(UwB97XD) =  -78.4915165481     A.U. after    7 cycles
            NFock=  7  Conv=0.39D-08     -V/T= 2.0117
 <Sx>= 0.0000 <Sy>= 0.0000 <Sz>= 0.0000 <S**2>= 0.0000 S= 0.0000
 <L.S>= 0.000000000000E+00
 Annihilation of the first spin contaminant:
 S**2 before annihilation     0.0000,   after     0.0000
 QCSCF skips out because SCF is already converged.
   1 Symmetry operations used in ECPInt.
 ECPInt:  NShTT=     210 NPrTT=     858 LenC2=     211 LenP2D=     801.
 LDataN:  DoStor=T MaxTD1= 5 Len=  102
 Calling FoFJK, ICntrl=      2127 FMM=F ISym2X=0 I1Cent= 0 IOpClX= 1 NMat=1 NMatS=1 NMatT=0.
 ***** Axes restored to original set *****
 -------------------------------------------------------------------
 Center     Atomic                   Forces (Hartrees/Bohr)
 Number     Number              X              Y              Z
 -------------------------------------------------------------------
      1        6           0.000316836    0.000138371    0.000002112
      2        6          -0.000316695   -0.000138525   -0.000002253
      3        1           0.000113627   -0.000273777   -0.000145449
      4        1          -0.000121749    0.000267639    0.000145261
      5        1           0.000121797   -0.000267646   -0.000145246
      6        1          -0.000113816    0.000273938    0.000145575
 -------------------------------------------------------------------
 Cartesian Forces:  Max     0.000316836 RMS     0.000193269

 GradGradGradGradGradGradGradGradGradGradGradGradGradGradGradGradGradGrad
 Berny optimization.
 Using GEDIIS/GDIIS optimizer.
 FormGI is forming the generalized inverse of G from B-inverse, IUseBI=4.
 Internal  Forces:  Max     0.000335837 RMS     0.000200001
 Search for a local minimum.
 Step number   3 out of a maximum of  100
 All quantities printed in internal units (Hartrees-Bohrs-Radians)
 Mixed Optimization -- En-DIIS/RFO-DIIS
 Update second derivatives using D2CorX and points    1    2    3
 DE= -4.48D-05 DEPred=-3.90D-05 R= 1.15D+00
 TightC=F SS=  1.41D+00  RLast= 2.33D-02 DXNew= 5.0454D-01 6.9810D-02
 Trust test= 1.15D+00 RLast= 2.33D-02 DXMaxT set to 3.00D-01
 The second derivative matrix:
                          R1        R2        R3        R4        R5
           R1           0.61568
           R2           0.01734   0.36481
           R3           0.01737   0.01115   0.36478
           R4           0.01737   0.01115   0.01114   0.36478
           R5           0.01736   0.01118   0.01116   0.01116   0.36484
           A1           0.00679  -0.00073  -0.00074  -0.00074  -0.00073
           A2           0.00679  -0.00072  -0.00073  -0.00073  -0.00072
           A3          -0.01358   0.00145   0.00147   0.00147   0.00145
           A4           0.00679  -0.00072  -0.00073  -0.00073  -0.00072
           A5           0.00679  -0.00073  -0.00074  -0.00074  -0.00073
           A6          -0.01358   0.00145   0.00147   0.00147   0.00145
           D1           0.00004   0.00000   0.00000   0.00000   0.00000
           D2          -0.00000  -0.00000  -0.00000  -0.00000  -0.00000
           D3           0.00000  -0.00000  -0.00000  -0.00000  -0.00000
           D4          -0.00004  -0.00000  -0.00000  -0.00000  -0.00000
                          A1        A2        A3        A4        A5
           A1           0.15588
           A2          -0.00411   0.15589
           A3           0.00823   0.00822   0.14354
           A4          -0.00411  -0.00411   0.00823   0.15589
           A5          -0.00412  -0.00412   0.00823  -0.00412   0.15588
           A6           0.00823   0.00823  -0.01646   0.00823   0.00824
           D1          -0.00000  -0.00000   0.00001  -0.00000  -0.00000
           D2           0.00000   0.00000  -0.00000   0.00000   0.00000
           D3          -0.00000  -0.00000   0.00000  -0.00000  -0.00000
           D4           0.00000   0.00000  -0.00001   0.00000   0.00000
                          A6        D1        D2        D3        D4
           A6           0.14354
           D1           0.00001   0.02999
           D2          -0.00000  -0.00000   0.02999
           D3           0.00000   0.00000  -0.00000   0.02999
           D4          -0.00001  -0.00000   0.00000  -0.00000   0.02999
 ITU=  1  1  0
 Use linear search instead of GDIIS.
     Eigenvalues ---    0.02999   0.02999   0.02999   0.10937   0.16000
     Eigenvalues ---    0.16000   0.16000   0.35364   0.35364   0.35365
     Eigenvalues ---    0.39313   0.62207
 RFO step:  Lambda=-8.83216437D-07 EMin= 2.99883733D-02
 Quartic linear search produced a step of  0.15667.
 Iteration  1 RMS(Cart)=  0.00114558 RMS(Int)=  0.00000073
 Iteration  2 RMS(Cart)=  0.00000076 RMS(Int)=  0.00000000
 Variable       Old X    -DE/DX   Delta X   Delta X   Delta X     New X
                                 (Linear)    (Quad)   (Total)
    R1        2.51730  -0.00034  -0.00083   0.00021  -0.00062   2.51668
    R2        2.07320  -0.00028   0.00009  -0.00074  -0.00065   2.07255
    R3        2.07320  -0.00028   0.00009  -0.00073  -0.00064   2.07255
    R4        2.07320  -0.00028   0.00009  -0.00073  -0.00064   2.07255
    R5        2.07320  -0.00028   0.00009  -0.00074  -0.00065   2.07255
    A1        2.12177   0.00012   0.00102   0.00010   0.00112   2.12289
    A2        2.12177   0.00012   0.00102   0.00009   0.00112   2.12288
    A3        2.03965  -0.00024  -0.00205  -0.00019  -0.00224   2.03741
    A4        2.12177   0.00012   0.00102   0.00009   0.00112   2.12288
    A5        2.12177   0.00012   0.00102   0.00010   0.00112   2.12289
    A6        2.03965  -0.00024  -0.00205  -0.00019  -0.00224   2.03741
    D1       -0.00008   0.00000  -0.00001   0.00004   0.00002  -0.00005
    D2       -3.14159  -0.00000   0.00000  -0.00000  -0.00000   3.14159
    D3        3.14159   0.00000  -0.00000   0.00000   0.00000  -3.14159
    D4        0.00008  -0.00000   0.00001  -0.00004  -0.00002   0.00005
         Item               Value     Threshold  Converged?
 Maximum Force            0.000336     0.000450     YES
 RMS     Force            0.000200     0.000300     YES
 Maximum Displacement     0.001985     0.001800     NO 
 RMS     Displacement     0.001146     0.001200     YES
 Predicted change in Energy=-1.285455D-06
 GradGradGradGradGradGradGradGradGradGradGradGradGradGradGradGradGradGrad

                          Input orientation:                          
 ---------------------------------------------------------------------
 Center     Atomic      Atomic             Coordinates (Angstroms)
 Number     Number       Type             X           Y           Z
 ---------------------------------------------------------------------
      1          6           0       -0.974954   -0.085132   -0.000010
      2          6           0        0.246050    0.446622    0.000010
      3          1           0       -1.837792    0.455476    0.407549
      4          1           0       -1.166839   -1.085107   -0.407542
      5          1           0        0.437936    1.446597    0.407542
      6          1           0        1.108889   -0.093986   -0.407549
 ---------------------------------------------------------------------
                    Distance matrix (angstroms):
                    1          2          3          4          5
     1  C    0.000000
     2  C    1.331770   0.000000
     3  H    1.096746   2.123338   0.000000
     4  H    1.096747   2.123334   1.867605   0.000000
     5  H    2.123334   1.096747   2.482188   3.106315   0.000000
     6  H    2.123338   1.096746   3.106320   2.482189   1.867605
                    6
     6  H    0.000000
 Stoichiometry    C2H4
 Framework group  C1[X(C2H4)]
 Deg. of freedom    12
 Prev. full point group           C1      NOp   1
 Prev. largest Abelian subgroup   C1      NOp   1
       concise Abelian subgroup   C1      NOp   1
                   Standard orientation:
 ---------------------------------------------------------------------
 Center     Atomic                     Coordinates (Angstroms)
 Number     Number                        X           Y           Z
 ---------------------------------------------------------------------
      1          6                    0.665328    0.024959    0.010877
      2          6                   -0.665328   -0.024959   -0.010877
      3          1                    1.205712    0.978894   -0.018209
      4          1                    1.274402   -0.885862    0.058705
      5          1                   -1.274402    0.885862   -0.058705
      6          1                   -1.205712   -0.978894    0.018209
 ---------------------------------------------------------------------
 Rotational constants (GHZ):         143.7679944          29.9907872          24.8143736
 Standard basis: def2SVPP (5D, 7F)
 There are    38 symmetry adapted cartesian basis functions of A   symmetry.
 There are    36 symmetry adapted basis functions of A   symmetry.
    36 basis functions,    66 primitive gaussians,    38 cartesian basis functions
     8 alpha electrons        8 beta electrons
       nuclear repulsion energy        33.1995466621 Hartrees.
 NAtoms=    6 NActive=    6 NUniq=    6 SFac= 1.00D+00 NAtFMM=   60 NAOKFM=F Big=F
 Integral buffers will be    131072 words long.
 Raffenetti 2 integral format.
 Two-electron integral symmetry is turned on.
 Nuclear repulsion after empirical dispersion term =       33.1987063398 Hartrees.
 One-electron integrals computed using PRISM.
   1 Symmetry operations used in ECPInt.
 ECPInt:  NShTT=     210 NPrTT=     858 LenC2=     211 LenP2D=     801.
 LDataN:  DoStor=T MaxTD1= 4 Len=   56
 NBasis=    36 RedAO= T EigKep=  4.67D-03  NBF=    36
 NBsUse=    36 1.00D-06 EigRej= -1.00D+00 NBFU=    36
 Initial guess from the checkpoint file:  "D2h.chk"
 B after Tr=    -0.000000   -0.000000   -0.000000
         Rot=    1.000000   -0.000000   -0.000000    0.000000 Ang=  -0.00 deg.
 Initial guess <Sx>= 0.0000 <Sy>= 0.0000 <Sz>= 0.0000 <S**2>=-0.0000 S=-0.0000
 Keep R1 and R2 ints in memory in canonical form, NReq=21655520.
 Requested convergence on RMS density matrix=1.00D-08 within 128 cycles.
 Requested convergence on MAX density matrix=1.00D-06.
 Requested convergence on             energy=1.00D-06.
 No special actions if energy rises.
 SCF Done:  E(UwB97XD) =  -78.4915178580     A.U. after    6 cycles
            NFock=  6  Conv=0.92D-08     -V/T= 2.0116
 <Sx>= 0.0000 <Sy>= 0.0000 <Sz>= 0.0000 <S**2>=-0.0000 S=-0.0000
 <L.S>= 0.000000000000E+00
 Annihilation of the first spin contaminant:
 S**2 before annihilation    -0.0000,   after    -0.0000
 QCSCF skips out because SCF is already converged.
   1 Symmetry operations used in ECPInt.
 ECPInt:  NShTT=     210 NPrTT=     858 LenC2=     211 LenP2D=     801.
 LDataN:  DoStor=T MaxTD1= 5 Len=  102
 Calling FoFJK, ICntrl=      2127 FMM=F ISym2X=0 I1Cent= 0 IOpClX= 1 NMat=1 NMatS=1 NMatT=0.
 ***** Axes restored to original set *****
 -------------------------------------------------------------------
 Center     Atomic                   Forces (Hartrees/Bohr)
 Number     Number              X              Y              Z
 -------------------------------------------------------------------
      1        6           0.000013929    0.000006005   -0.000000099
      2        6          -0.000013909   -0.000006035    0.000000122
      3        1           0.000020106   -0.000009045   -0.000009145
      4        1           0.000008642    0.000019540    0.000010237
      5        1          -0.000008641   -0.000019530   -0.000010253
      6        1          -0.000020126    0.000009066    0.000009138
 -------------------------------------------------------------------
 Cartesian Forces:  Max     0.000020126 RMS     0.000012299

 GradGradGradGradGradGradGradGradGradGradGradGradGradGradGradGradGradGrad
 Berny optimization.
 Using GEDIIS/GDIIS optimizer.
 FormGI is forming the generalized inverse of G from B-inverse, IUseBI=4.
 Internal  Forces:  Max     0.000045715 RMS     0.000017035
 Search for a local minimum.
 Step number   4 out of a maximum of  100
 All quantities printed in internal units (Hartrees-Bohrs-Radians)
 Mixed Optimization -- En-DIIS/RFO-DIIS
 Swapping is turned off.
 Update second derivatives using D2CorX and points    1    2    3    4
 DE= -1.31D-06 DEPred=-1.29D-06 R= 1.02D+00
 TightC=F SS=  1.41D+00  RLast= 4.13D-03 DXNew= 5.0454D-01 1.2392D-02
 Trust test= 1.02D+00 RLast= 4.13D-03 DXMaxT set to 3.00D-01
 The second derivative matrix:
                          R1        R2        R3        R4        R5
           R1           0.61063
           R2           0.01080   0.35739
           R3           0.01085   0.00375   0.35739
           R4           0.01085   0.00375   0.00376   0.35739
           R5           0.01080   0.00374   0.00375   0.00375   0.35740
           A1           0.00869  -0.00070  -0.00070  -0.00070  -0.00070
           A2           0.00865  -0.00071  -0.00072  -0.00072  -0.00071
           A3          -0.01734   0.00141   0.00142   0.00142   0.00141
           A4           0.00865  -0.00071  -0.00072  -0.00072  -0.00071
           A5           0.00869  -0.00070  -0.00070  -0.00071  -0.00070
           A6          -0.01734   0.00141   0.00142   0.00142   0.00141
           D1           0.00003  -0.00001  -0.00001  -0.00001  -0.00001
           D2           0.00000   0.00000   0.00000   0.00000   0.00000
           D3          -0.00000  -0.00000  -0.00000  -0.00000  -0.00000
           D4          -0.00003   0.00001   0.00001   0.00001   0.00001
                          A1        A2        A3        A4        A5
           A1           0.15619
           A2          -0.00380   0.15621
           A3           0.00761   0.00759   0.14480
           A4          -0.00380  -0.00379   0.00759   0.15621
           A5          -0.00381  -0.00380   0.00761  -0.00380   0.15619
           A6           0.00761   0.00759  -0.01520   0.00759   0.00761
           D1           0.00001   0.00001  -0.00002   0.00001   0.00001
           D2          -0.00000  -0.00000   0.00000  -0.00000  -0.00000
           D3           0.00000   0.00000  -0.00000   0.00000   0.00000
           D4          -0.00001  -0.00001   0.00002  -0.00001  -0.00001
                          A6        D1        D2        D3        D4
           A6           0.14480
           D1          -0.00002   0.02999
           D2           0.00000  -0.00000   0.02999
           D3          -0.00000   0.00000  -0.00000   0.02999
           D4           0.00002  -0.00000   0.00000  -0.00000   0.02999
 ITU=  1  1  1  0
     Eigenvalues ---    0.02999   0.02999   0.02999   0.11244   0.16000
     Eigenvalues ---    0.16000   0.16000   0.35364   0.35364   0.35365
     Eigenvalues ---    0.36695   0.61429
 En-DIIS/RFO-DIIS/Sim-DIIS IScMMF=       -3 using points:     4    3
 RFO step:  Lambda=-8.95651634D-09.
 DidBck=F Rises=F RFO-DIIS coefs:    0.99790    0.00210
 Iteration  1 RMS(Cart)=  0.00005462 RMS(Int)=  0.00000000
 Iteration  2 RMS(Cart)=  0.00000000 RMS(Int)=  0.00000000
 Variable       Old X    -DE/DX   Delta X   Delta X   Delta X     New X
                                 (Linear)    (Quad)   (Total)
    R1        2.51668  -0.00005   0.00000  -0.00007  -0.00007   2.51661
    R2        2.07255  -0.00002   0.00000  -0.00006  -0.00006   2.07249
    R3        2.07255  -0.00002   0.00000  -0.00006  -0.00006   2.07249
    R4        2.07255  -0.00002   0.00000  -0.00006  -0.00006   2.07249
    R5        2.07255  -0.00002   0.00000  -0.00006  -0.00006   2.07249
    A1        2.12289  -0.00000  -0.00000  -0.00001  -0.00002   2.12287
    A2        2.12288  -0.00000  -0.00000  -0.00002  -0.00002   2.12286
    A3        2.03741   0.00000   0.00000   0.00003   0.00004   2.03745
    A4        2.12288  -0.00000  -0.00000  -0.00002  -0.00002   2.12286
    A5        2.12289  -0.00000  -0.00000  -0.00001  -0.00002   2.12287
    A6        2.03741   0.00000   0.00000   0.00003   0.00004   2.03745
    D1       -0.00005  -0.00000  -0.00000  -0.00001  -0.00001  -0.00006
    D2        3.14159   0.00000   0.00000   0.00000   0.00000  -3.14159
    D3       -3.14159  -0.00000  -0.00000  -0.00000  -0.00000   3.14159
    D4        0.00005   0.00000   0.00000   0.00001   0.00001   0.00006
         Item               Value     Threshold  Converged?
 Maximum Force            0.000046     0.000450     YES
 RMS     Force            0.000017     0.000300     YES
 Maximum Displacement     0.000101     0.001800     YES
 RMS     Displacement     0.000055     0.001200     YES
 Predicted change in Energy=-4.701076D-09
 Optimization completed.
    -- Stationary point found.
                           ----------------------------
                           !   Optimized Parameters   !
                           ! (Angstroms and Degrees)  !
 --------------------------                            --------------------------
 ! Name  Definition              Value          Derivative Info.                !
 --------------------------------------------------------------------------------
 ! R1    R(1,2)                  1.3318         -DE/DX =    0.0                 !
 ! R2    R(1,3)                  1.0967         -DE/DX =    0.0                 !
 ! R3    R(1,4)                  1.0967         -DE/DX =    0.0                 !
 ! R4    R(2,5)                  1.0967         -DE/DX =    0.0                 !
 ! R5    R(2,6)                  1.0967         -DE/DX =    0.0                 !
 ! A1    A(2,1,3)              121.6327         -DE/DX =    0.0                 !
 ! A2    A(2,1,4)              121.6322         -DE/DX =    0.0                 !
 ! A3    A(3,1,4)              116.735          -DE/DX =    0.0                 !
 ! A4    A(1,2,5)              121.6322         -DE/DX =    0.0                 !
 ! A5    A(1,2,6)              121.6327         -DE/DX =    0.0                 !
 ! A6    A(5,2,6)              116.735          -DE/DX =    0.0                 !
 ! D1    D(3,1,2,5)             -0.0031         -DE/DX =    0.0                 !
 ! D2    D(3,1,2,6)           -180.0            -DE/DX =    0.0                 !
 ! D3    D(4,1,2,5)            180.0            -DE/DX =    0.0                 !
 ! D4    D(4,1,2,6)              0.0031         -DE/DX =    0.0                 !
 --------------------------------------------------------------------------------
 GradGradGradGradGradGradGradGradGradGradGradGradGradGradGradGradGradGrad

                          Input orientation:                          
 ---------------------------------------------------------------------
 Center     Atomic      Atomic             Coordinates (Angstroms)
 Number     Number       Type             X           Y           Z
 ---------------------------------------------------------------------
      1          6           0       -0.974954   -0.085132   -0.000010
      2          6           0        0.246050    0.446622    0.000010
      3          1           0       -1.837792    0.455476    0.407549
      4          1           0       -1.166839   -1.085107   -0.407542
      5          1           0        0.437936    1.446597    0.407542
      6          1           0        1.108889   -0.093986   -0.407549
 ---------------------------------------------------------------------
                    Distance matrix (angstroms):
                    1          2          3          4          5
     1  C    0.000000
     2  C    1.331770   0.000000
     3  H    1.096746   2.123338   0.000000
     4  H    1.096747   2.123334   1.867605   0.000000
     5  H    2.123334   1.096747   2.482188   3.106315   0.000000
     6  H    2.123338   1.096746   3.106320   2.482189   1.867605
                    6
     6  H    0.000000
 Stoichiometry    C2H4
 Framework group  C1[X(C2H4)]
 Deg. of freedom    12
 Prev. full point group           C1      NOp   1
 Prev. largest Abelian subgroup   C1      NOp   1
       concise Abelian subgroup   C1      NOp   1
                   Standard orientation:
 ---------------------------------------------------------------------
 Center     Atomic                     Coordinates (Angstroms)
 Number     Number                        X           Y           Z
 ---------------------------------------------------------------------
      1          6                    0.665328    0.024959    0.010877
      2          6                   -0.665328   -0.024959   -0.010877
      3          1                    1.205712    0.978894   -0.018209
      4          1                    1.274402   -0.885862    0.058705
      5          1                   -1.274402    0.885862   -0.058705
      6          1                   -1.205712   -0.978894    0.018209
 ---------------------------------------------------------------------
 Rotational constants (GHZ):         143.7679944          29.9907872          24.8143736

 **********************************************************************

            Population analysis using the SCF Density.

 **********************************************************************

 Orbital symmetries:
 Alpha Orbitals:
       Occupied  (A) (A) (A) (A) (A) (A) (A) (A)
       Virtual   (A) (A) (A) (A) (A) (A) (A) (A) (A) (A) (A) (A)
                 (A) (A) (A) (A) (A) (A) (A) (A) (A) (A) (A) (A)
                 (A) (A) (A) (A)
 Beta  Orbitals:
       Occupied  (A) (A) (A) (A) (A) (A) (A) (A)
       Virtual   (A) (A) (A) (A) (A) (A) (A) (A) (A) (A) (A) (A)
                 (A) (A) (A) (A) (A) (A) (A) (A) (A) (A) (A) (A)
                 (A) (A) (A) (A)
 The electronic state is 1-A.
 Alpha  occ. eigenvalues --  -10.29573 -10.29493  -0.85016  -0.66444  -0.55594
 Alpha  occ. eigenvalues --   -0.50541  -0.43723  -0.35620
 Alpha virt. eigenvalues --    0.08458   0.16735   0.18530   0.19993   0.27323
 Alpha virt. eigenvalues --    0.40785   0.48329   0.52742   0.52848   0.57748
 Alpha virt. eigenvalues --    0.63858   0.66957   0.76230   0.77732   0.79067
 Alpha virt. eigenvalues --    0.82159   0.92112   1.16809   1.53853   1.61656
 Alpha virt. eigenvalues --    1.90652   1.91825   1.95506   2.11162   2.26682
 Alpha virt. eigenvalues --    2.45424   2.70536   2.77406
  Beta  occ. eigenvalues --  -10.29573 -10.29493  -0.85016  -0.66444  -0.55594
  Beta  occ. eigenvalues --   -0.50541  -0.43723  -0.35620
  Beta virt. eigenvalues --    0.08458   0.16735   0.18530   0.19993   0.27323
  Beta virt. eigenvalues --    0.40785   0.48329   0.52742   0.52848   0.57748
  Beta virt. eigenvalues --    0.63858   0.66957   0.76230   0.77732   0.79067
  Beta virt. eigenvalues --    0.82159   0.92112   1.16809   1.53853   1.61656
  Beta virt. eigenvalues --    1.90652   1.91825   1.95506   2.11162   2.26682
  Beta virt. eigenvalues --    2.45424   2.70536   2.77406
          Condensed to atoms (all electrons):
               1          2          3          4          5          6
     1  C    4.818340   0.727864   0.382118   0.382118  -0.023629  -0.023629
     2  C    0.727864   4.818340  -0.023629  -0.023629   0.382118   0.382118
     3  H    0.382118  -0.023629   0.555062  -0.039091  -0.012345   0.006292
     4  H    0.382118  -0.023629  -0.039091   0.555065   0.006292  -0.012345
     5  H   -0.023629   0.382118  -0.012345   0.006292   0.555065  -0.039091
     6  H   -0.023629   0.382118   0.006292  -0.012345  -0.039091   0.555062
          Atomic-Atomic Spin Densities.
               1          2          3          4          5          6
     1  C    0.000000   0.000000   0.000000   0.000000   0.000000   0.000000
     2  C    0.000000   0.000000   0.000000   0.000000   0.000000   0.000000
     3  H    0.000000   0.000000   0.000000   0.000000   0.000000   0.000000
     4  H    0.000000   0.000000   0.000000   0.000000   0.000000   0.000000
     5  H    0.000000   0.000000   0.000000   0.000000   0.000000   0.000000
     6  H    0.000000   0.000000   0.000000   0.000000   0.000000   0.000000
 Mulliken charges and spin densities:
               1          2
     1  C   -0.263182   0.000000
     2  C   -0.263182   0.000000
     3  H    0.131592   0.000000
     4  H    0.131590   0.000000
     5  H    0.131590   0.000000
     6  H    0.131592   0.000000
 Sum of Mulliken charges =  -0.00000   0.00000
 Mulliken charges and spin densities with hydrogens summed into heavy atoms:
               1          2
     1  C   -0.000000   0.000000
     2  C    0.000000   0.000000
 Electronic spatial extent (au):  <R**2>=             82.9213
 Charge=             -0.0000 electrons
 Dipole moment (field-independent basis, Debye):
    X=             -0.0000    Y=             -0.0000    Z=             -0.0000  Tot=              0.0000
 Quadrupole moment (field-independent basis, Debye-Ang):
   XX=            -12.1526   YY=            -12.1980   ZZ=            -15.2773
   XY=              0.0038   XZ=              0.0557   YZ=             -0.1252
 Traceless Quadrupole moment (field-independent basis, Debye-Ang):
   XX=              1.0567   YY=              1.0113   ZZ=             -2.0680
   XY=              0.0038   XZ=              0.0557   YZ=             -0.1252
 Octapole moment (field-independent basis, Debye-Ang**2):
  XXX=              0.0000  YYY=              0.0000  ZZZ=             -0.0000  XYY=              0.0000
  XXY=             -0.0000  XXZ=             -0.0000  XZZ=             -0.0000  YZZ=              0.0000
  YYZ=             -0.0000  XYZ=             -0.0000
 Hexadecapole moment (field-independent basis, Debye-Ang**3):
 XXXX=            -67.2464 YYYY=            -26.2210 ZZZZ=            -16.7829 XXXY=             -1.0314
 XXXZ=             -0.3662 YYYX=             -0.5085 YYYZ=              0.1117 ZZZX=             -0.4613
 ZZZY=              0.2492 XXYY=            -13.2478 XXZZ=            -14.8001 YYZZ=             -7.7482
 XXYZ=             -0.0720 YYXZ=             -0.0993 ZZXY=             -0.2714
 N-N= 3.319870633981D+01 E-N=-2.474559564199D+02  KE= 7.758818576266D+01
                          Isotropic Fermi Contact Couplings
        Atom                 a.u.       MegaHertz       Gauss      10(-4) cm-1
     1  C(13)              0.00000       0.00000       0.00000       0.00000
     2  C(13)              0.00000       0.00000       0.00000       0.00000
     3  H(1)               0.00000       0.00000       0.00000       0.00000
     4  H(1)               0.00000       0.00000       0.00000       0.00000
     5  H(1)               0.00000       0.00000       0.00000       0.00000
     6  H(1)               0.00000       0.00000       0.00000       0.00000
 --------------------------------------------------------
       Center         ----  Spin Dipole Couplings  ----
                      3XX-RR        3YY-RR        3ZZ-RR
 --------------------------------------------------------
     1   Atom        0.000000      0.000000      0.000000
     2   Atom        0.000000      0.000000      0.000000
     3   Atom        0.000000      0.000000      0.000000
     4   Atom        0.000000      0.000000      0.000000
     5   Atom        0.000000      0.000000      0.000000
     6   Atom        0.000000      0.000000      0.000000
 --------------------------------------------------------
                        XY            XZ            YZ
 --------------------------------------------------------
     1   Atom        0.000000      0.000000      0.000000
     2   Atom        0.000000      0.000000      0.000000
     3   Atom        0.000000      0.000000      0.000000
     4   Atom        0.000000      0.000000      0.000000
     5   Atom        0.000000      0.000000      0.000000
     6   Atom        0.000000      0.000000      0.000000
 --------------------------------------------------------


 ---------------------------------------------------------------------------------
              Anisotropic Spin Dipole Couplings in Principal Axis System
 ---------------------------------------------------------------------------------

       Atom             a.u.   MegaHertz   Gauss  10(-4) cm-1        Axes

              Baa     0.0000     0.000     0.000     0.000  1.0000  0.0000  0.0000
     1 C(13)  Bbb     0.0000     0.000     0.000     0.000 -0.0000  1.0000  0.0000
              Bcc     0.0000     0.000     0.000     0.000  0.0000  0.0000  1.0000
 
              Baa     0.0000     0.000     0.000     0.000  1.0000  0.0000  0.0000
     2 C(13)  Bbb     0.0000     0.000     0.000     0.000 -0.0000  1.0000  0.0000
              Bcc     0.0000     0.000     0.000     0.000  0.0000  0.0000  1.0000
 
              Baa     0.0000     0.000     0.000     0.000  1.0000  0.0000  0.0000
     3 H(1)   Bbb     0.0000     0.000     0.000     0.000 -0.0000  1.0000  0.0000
              Bcc     0.0000     0.000     0.000     0.000  0.0000  0.0000  1.0000
 
              Baa     0.0000     0.000     0.000     0.000  1.0000  0.0000  0.0000
     4 H(1)   Bbb     0.0000     0.000     0.000     0.000 -0.0000  1.0000  0.0000
              Bcc     0.0000     0.000     0.000     0.000  0.0000  0.0000  1.0000
 
              Baa     0.0000     0.000     0.000     0.000  1.0000  0.0000  0.0000
     5 H(1)   Bbb     0.0000     0.000     0.000     0.000 -0.0000  1.0000  0.0000
              Bcc     0.0000     0.000     0.000     0.000  0.0000  0.0000  1.0000
 
              Baa     0.0000     0.000     0.000     0.000  1.0000  0.0000  0.0000
     6 H(1)   Bbb     0.0000     0.000     0.000     0.000 -0.0000  1.0000  0.0000
              Bcc     0.0000     0.000     0.000     0.000  0.0000  0.0000  1.0000
 

 ---------------------------------------------------------------------------------

 Unable to Open any file for archive entry.
 1\1\GINC-GADI-CPU-CLX-1281\FOpt\UwB97XD\def2SVPP\C2H4\XXXXXX\12-Sep-20
 25\0\\# opt(maxcycles=300) freq scf(maxcycle=300,xqc) UwB97XD/Def2SVPP
  symmetry(On,follow,PG=D2h)\\Title: Geometrical optimization and frequ
 ency calculation\\0,1\C,-0.9749535323,-0.0851316102,-0.0000098072\C,0.
 2460501833,0.4466217066,0.0000096278\H,-1.8377921942,0.45547574,0.4075
 486772\H,-1.1668391145,-1.0851073277,-0.4075417677\H,0.4379357645,1.44
 65972848,0.4075418653\H,1.1088888931,-0.0939857936,-0.4075485954\\Vers
 ion=ES64L-G16RevC.01\State=1-A\HF=-78.4915179\S2=0.\S2-1=0.\S2A=0.\RMS
 D=9.185e-09\RMSF=1.230e-05\Dipole=0.0000002,0.,0.0000002\Quadrupole=0.
 711714,0.3926432,-1.1043572,0.1714815,-0.3602748,0.8271583\PG=C01 [X(C
 2H4)]\\@
 The archive entry for this job was punched.


 "ANNA, YOU MUSN'T SPEAK OF OXIDIZED MURIATIC ACID
 ANYMORE, FROM NOW ON YOU MUST SAY CHLORINE."
   -- JENS JACOB BERZELIUS, IN 1820, TO HIS COOK, WHO HAD
 COMPLAINED OF THE SMELL OF THE FLASK SHE WAS CLEANING.
 Job cpu time:       0 days  0 hours  2 minutes 30.2 seconds.
 Elapsed time:       0 days  0 hours  0 minutes  7.1 seconds.
 File lengths (MBytes):  RWF=      6 Int=      0 D2E=      0 Chk=      1 Scr=      1
 Normal termination of Gaussian 16 at Fri Sep 12 22:03:06 2025.
 Link1:  Proceeding to internal job step number  2.
 ---------------------------------------------------------------------
 #N Geom=AllCheck Guess=TCheck SCRF=Check GenChk UwB97XD/def2SVPP Freq
 ---------------------------------------------------------------------
 1/6=300,10=4,29=7,30=1,38=1,40=1/1,3;
 2/12=2,15=-1,40=1/2;
 3/5=43,7=202,11=2,14=-4,25=1,30=1,70=2,71=2,74=-58,116=2,140=1/1,2,3;
 4/5=101/1;
 5/5=2,7=300,8=3,13=1,38=6,98=1/2,8;
 8/6=4,10=90,11=11/1;
 11/6=1,8=1,9=11,15=111,16=1,31=1/1,2,10;
 10/6=1,31=1/2;
 6/7=2,8=2,9=2,10=2,28=1/1;
 7/8=1,10=1,25=1,30=1/1,2,3,16;
 1/6=300,10=4,30=1/3;
 99//99;
 Structure from the checkpoint file:  "D2h.chk"
 ---------------------------------------------------------
 Title: Geometrical optimization and frequency calculation
 ---------------------------------------------------------
 Charge =  0 Multiplicity = 1
 Redundant internal coordinates found in file.  (old form).
 C,0,-0.9749535323,-0.0851316102,-0.0000098072
 C,0,0.2460501833,0.4466217066,0.0000096278
 H,0,-1.8377921942,0.45547574,0.4075486772
 H,0,-1.1668391145,-1.0851073277,-0.4075417677
 H,0,0.4379357645,1.4465972848,0.4075418653
 H,0,1.1088888931,-0.0939857936,-0.4075485954
 Recover connectivity data from disk.

 GradGradGradGradGradGradGradGradGradGradGradGradGradGradGradGradGradGrad
 Berny optimization.
 Initialization pass.
                           ----------------------------
                           !    Initial Parameters    !
                           ! (Angstroms and Degrees)  !
 --------------------------                            --------------------------
 ! Name  Definition              Value          Derivative Info.                !
 --------------------------------------------------------------------------------
 ! R1    R(1,2)                  1.3318         calculate D2E/DX2 analytically  !
 ! R2    R(1,3)                  1.0967         calculate D2E/DX2 analytically  !
 ! R3    R(1,4)                  1.0967         calculate D2E/DX2 analytically  !
 ! R4    R(2,5)                  1.0967         calculate D2E/DX2 analytically  !
 ! R5    R(2,6)                  1.0967         calculate D2E/DX2 analytically  !
 ! A1    A(2,1,3)              121.6327         calculate D2E/DX2 analytically  !
 ! A2    A(2,1,4)              121.6322         calculate D2E/DX2 analytically  !
 ! A3    A(3,1,4)              116.735          calculate D2E/DX2 analytically  !
 ! A4    A(1,2,5)              121.6322         calculate D2E/DX2 analytically  !
 ! A5    A(1,2,6)              121.6327         calculate D2E/DX2 analytically  !
 ! A6    A(5,2,6)              116.735          calculate D2E/DX2 analytically  !
 ! D1    D(3,1,2,5)             -0.0031         calculate D2E/DX2 analytically  !
 ! D2    D(3,1,2,6)            180.0            calculate D2E/DX2 analytically  !
 ! D3    D(4,1,2,5)           -180.0            calculate D2E/DX2 analytically  !
 ! D4    D(4,1,2,6)              0.0031         calculate D2E/DX2 analytically  !
 --------------------------------------------------------------------------------
 Trust Radius=3.00D-01 FncErr=1.00D-07 GrdErr=1.00D-07 EigMax=2.50D+02 EigMin=1.00D-04
 Number of steps in this run=      2 maximum allowed number of steps=      2.
 GradGradGradGradGradGradGradGradGradGradGradGradGradGradGradGradGradGrad

                          Input orientation:                          
 ---------------------------------------------------------------------
 Center     Atomic      Atomic             Coordinates (Angstroms)
 Number     Number       Type             X           Y           Z
 ---------------------------------------------------------------------
      1          6           0       -0.974954   -0.085132   -0.000010
      2          6           0        0.246050    0.446622    0.000010
      3          1           0       -1.837792    0.455476    0.407549
      4          1           0       -1.166839   -1.085107   -0.407542
      5          1           0        0.437936    1.446597    0.407542
      6          1           0        1.108889   -0.093986   -0.407549
 ---------------------------------------------------------------------
                    Distance matrix (angstroms):
                    1          2          3          4          5
     1  C    0.000000
     2  C    1.331770   0.000000
     3  H    1.096746   2.123338   0.000000
     4  H    1.096747   2.123334   1.867605   0.000000
     5  H    2.123334   1.096747   2.482188   3.106315   0.000000
     6  H    2.123338   1.096746   3.106320   2.482189   1.867605
                    6
     6  H    0.000000
 Stoichiometry    C2H4
 Framework group  C1[X(C2H4)]
 Deg. of freedom    12
 Full point group                 C1      NOp   1
 Largest Abelian subgroup         C1      NOp   1
 Largest concise Abelian subgroup C1      NOp   1
                         Standard orientation:                         
 ---------------------------------------------------------------------
 Center     Atomic      Atomic             Coordinates (Angstroms)
 Number     Number       Type             X           Y           Z
 ---------------------------------------------------------------------
      1          6           0        0.665885    0.000000    0.000007
      2          6           0       -0.665885   -0.000000   -0.000007
      3          1           0        1.241098    0.933799   -0.000012
      4          1           0        1.241091   -0.933805   -0.000012
      5          1           0       -1.241091    0.933805    0.000012
      6          1           0       -1.241098   -0.933799    0.000012
 ---------------------------------------------------------------------
 Rotational constants (GHZ):         143.7679944          29.9907872          24.8143736
 Standard basis: def2SVPP (5D, 7F)
 There are    38 symmetry adapted cartesian basis functions of A   symmetry.
 There are    36 symmetry adapted basis functions of A   symmetry.
    36 basis functions,    66 primitive gaussians,    38 cartesian basis functions
     8 alpha electrons        8 beta electrons
       nuclear repulsion energy        33.1995466621 Hartrees.
 NAtoms=    6 NActive=    6 NUniq=    6 SFac= 1.00D+00 NAtFMM=   60 NAOKFM=F Big=F
 Integral buffers will be    131072 words long.
 Raffenetti 2 integral format.
 Two-electron integral symmetry is turned on.
 Nuclear repulsion after empirical dispersion term =       33.1987063398 Hartrees.
 One-electron integrals computed using PRISM.
   1 Symmetry operations used in ECPInt.
 ECPInt:  NShTT=     210 NPrTT=     858 LenC2=     211 LenP2D=     801.
 LDataN:  DoStor=T MaxTD1= 4 Len=   56
 NBasis=    36 RedAO= T EigKep=  4.67D-03  NBF=    36
 NBsUse=    36 1.00D-06 EigRej= -1.00D+00 NBFU=    36
 Initial guess from the checkpoint file:  "D2h.chk"
 B after Tr=    -0.000000   -0.000000   -0.000000
         Rot=    0.999582   -0.020441   -0.008545    0.018574 Ang=  -3.31 deg.
 Initial guess <Sx>= 0.0000 <Sy>= 0.0000 <Sz>= 0.0000 <S**2>=-0.0000 S=-0.0000
 Keep R1 and R2 ints in memory in canonical form, NReq=21655520.
 Requested convergence on RMS density matrix=1.00D-08 within 128 cycles.
 Requested convergence on MAX density matrix=1.00D-06.
[...]
                      A                      A                      A
 Frequencies --   1063.0409              1234.5584              1379.6784
 Red. masses --      1.0078                 1.5253                 1.1708
 Frc consts  --      0.6710                 1.3697                 1.3131
 IR Inten    --      0.0000                 0.0000                 0.0000
  Atom  AN      X      Y      Z        X      Y      Z        X      Y      Z
     1   6     0.00   0.00  -0.00     0.00   0.15  -0.00     0.09  -0.00   0.00
     2   6     0.00   0.00  -0.00    -0.00  -0.15   0.00    -0.09   0.00  -0.00
     3   1    -0.00  -0.00  -0.50     0.47  -0.14   0.00     0.45  -0.20  -0.00
     4   1     0.00  -0.00   0.50    -0.47  -0.14  -0.00     0.45   0.20  -0.00
     5   1     0.00  -0.00   0.50     0.47   0.14   0.00    -0.45  -0.20   0.00
     6   1    -0.00  -0.00  -0.50    -0.47   0.14  -0.00    -0.45   0.20   0.00
                      7                      8                      9
                      A                      A                      A
 Frequencies --   1461.4303              1731.9023              3145.2230
 Red. masses --      1.1119                 3.4897                 1.0478
 Frc consts  --      1.3991                 6.1671                 6.1072
 IR Inten    --      8.8891                 0.0000                13.1024
  Atom  AN      X      Y      Z        X      Y      Z        X      Y      Z
     1   6    -0.07   0.00   0.00     0.34   0.00   0.00     0.04  -0.00  -0.00
     2   6    -0.07   0.00   0.00    -0.34  -0.00  -0.00     0.04  -0.00  -0.00
     3   1     0.41  -0.28  -0.00    -0.21   0.39   0.00    -0.25  -0.43   0.00
     4   1     0.41   0.28  -0.00    -0.21  -0.39   0.00    -0.25   0.43   0.00
     5   1     0.41   0.28  -0.00     0.21   0.39  -0.00    -0.25   0.43   0.00
     6   1     0.41  -0.28  -0.00     0.21  -0.39  -0.00    -0.25  -0.43   0.00
                     10                     11                     12
                      A                      A                      A
 Frequencies --   3163.9322              3228.1342              3248.7231
 Red. masses --      1.0786                 1.1175                 1.1184
 Frc consts  --      6.3614                 6.8610                 6.9546
 IR Inten    --      0.0000                 0.0000                14.4947
  Atom  AN      X      Y      Z        X      Y      Z        X      Y      Z
     1   6     0.06  -0.00  -0.00    -0.00  -0.07  -0.00    -0.00  -0.07  -0.00
     2   6    -0.06   0.00   0.00     0.00   0.07   0.00    -0.00  -0.07  -0.00
     3   1    -0.26  -0.43   0.00     0.26   0.42  -0.00     0.26   0.42  -0.00
     4   1    -0.26   0.43   0.00    -0.26   0.42   0.00    -0.26   0.42   0.00
     5   1     0.26  -0.43  -0.00     0.26  -0.42  -0.00    -0.26   0.42   0.00
     6   1     0.26   0.43  -0.00    -0.26  -0.42   0.00     0.26   0.42  -0.00

 -------------------
 - Thermochemistry -
 -------------------
 Temperature   298.150 Kelvin.  Pressure   1.00000 Atm.
 Atom     1 has atomic number  6 and mass  12.00000
 Atom     2 has atomic number  6 and mass  12.00000
 Atom     3 has atomic number  1 and mass   1.00783
 Atom     4 has atomic number  1 and mass   1.00783
 Atom     5 has atomic number  1 and mass   1.00783
 Atom     6 has atomic number  1 and mass   1.00783
 Molecular mass:    28.03130 amu.
 Principal axes and moments of inertia in atomic units:
                           1         2         3
     Eigenvalues --    12.55315  60.17652  72.72967
           X            1.00000  -0.00000  -0.00000
           Y            0.00000   1.00000  -0.00000
           Z            0.00000   0.00000   1.00000
 This molecule is an asymmetric top.
 Rotational symmetry number  1.
 Rotational temperatures (Kelvin)      6.89978     1.43933     1.19090
 Rotational constants (GHZ):         143.76799    29.99079    24.81437
 Zero-point vibrational energy     134264.8 (Joules/Mol)
                                   32.09005 (Kcal/Mol)
 Vibrational temperatures:   1198.71  1401.03  1415.45  1529.48  1776.25
          (Kelvin)           1985.05  2102.67  2491.82  4525.27  4552.19
                             4644.57  4674.19
 
 Zero-point correction=                           0.051139 (Hartree/Particle)
 Thermal correction to Energy=                    0.054180
 Thermal correction to Enthalpy=                  0.055124
 Thermal correction to Gibbs Free Energy=         0.028941
 Sum of electronic and zero-point Energies=            -78.440380
 Sum of electronic and thermal Energies=               -78.437339
 Sum of electronic and thermal Enthalpies=             -78.436394
 Sum of electronic and thermal Free Energies=          -78.462577
 
                     E (Thermal)             CV                S
                      KCal/Mol        Cal/Mol-Kelvin    Cal/Mol-Kelvin
 Total                   33.998              8.090             55.106
 Electronic               0.000              0.000              0.000
 Translational            0.889              2.981             35.927
 Rotational               0.889              2.981             18.647
 Vibrational             32.221              2.128              0.532
                       Q            Log10(Q)             Ln(Q)
 Total Bot       0.487409D-13        -13.312106        -30.652257
 Total V=0       0.162206D+11         10.210067         23.509549
 Vib (Bot)       0.314908D-23        -23.501816        -54.114932
 Vib (V=0)       0.104799D+01          0.020357          0.046874
 Electronic      0.100000D+01          0.000000          0.000000
 Translational   0.583336D+07          6.765919         15.579104
 Rotational      0.265333D+04          3.423791          7.883571
 ***** Axes restored to original set *****
 -------------------------------------------------------------------
 Center     Atomic                   Forces (Hartrees/Bohr)
 Number     Number              X              Y              Z
 -------------------------------------------------------------------
      1        6           0.000011977    0.000001301    0.000002926
      2        6          -0.000011967   -0.000001334   -0.000002903
      3        1           0.000021127   -0.000009949   -0.000009773
      4        1           0.000006253    0.000023881    0.000008157
      5        1          -0.000006249   -0.000023865   -0.000008170
      6        1          -0.000021141    0.000009967    0.000009764
 -------------------------------------------------------------------
 Cartesian Forces:  Max     0.000023881 RMS     0.000012782
 FormGI is forming the generalized inverse of G from B-inverse, IUseBI=4.

 GradGradGradGradGradGradGradGradGradGradGradGradGradGradGradGradGradGrad
 Berny optimization.
 Internal  Forces:  Max     0.000042166 RMS     0.000017175
 Search for a local minimum.
 Step number   1 out of a maximum of    2
 All quantities printed in internal units (Hartrees-Bohrs-Radians)
 Second derivative matrix not updated -- analytic derivatives used.
 The second derivative matrix:
                          R1        R2        R3        R4        R5
           R1           0.66798
           R2           0.00519   0.36006
           R3           0.00519   0.00177   0.36006
           R4           0.00519   0.00053  -0.00035   0.36006
           R5           0.00519  -0.00035   0.00053   0.00177   0.36006
           A1           0.01020   0.00400  -0.01024  -0.00309   0.00403
           A2           0.01020  -0.01024   0.00400   0.00403  -0.00309
           A3          -0.02041   0.00624   0.00624  -0.00095  -0.00095
           A4           0.01020  -0.00309   0.00403   0.00400  -0.01024
           A5           0.01020   0.00403  -0.00309  -0.01024   0.00400
           A6          -0.02041  -0.00095  -0.00095   0.00624   0.00624
           D1           0.00000   0.00000   0.00000   0.00000   0.00000
           D2           0.00000   0.00000   0.00000  -0.00000  -0.00000
           D3          -0.00000  -0.00000  -0.00000   0.00000   0.00000
           D4          -0.00000  -0.00000  -0.00000  -0.00000  -0.00000
                          A1        A2        A3        A4        A5
           A1           0.08209
           A2          -0.04567   0.08209
           A3          -0.03642  -0.03642   0.07284
           A4          -0.00850   0.01006  -0.00156   0.08209
           A5           0.01006  -0.00850  -0.00156  -0.04567   0.08209
           A6          -0.00156  -0.00156   0.00312  -0.03642  -0.03642
           D1           0.00000   0.00000  -0.00000   0.00000   0.00000
           D2           0.00000   0.00000  -0.00000  -0.00000  -0.00000
           D3          -0.00000  -0.00000   0.00000   0.00000   0.00000
           D4          -0.00000  -0.00000   0.00000  -0.00000  -0.00000
                          A6        D1        D2        D3        D4
           A6           0.07284
           D1          -0.00000   0.02652
           D2           0.00000   0.00839   0.03248
           D3          -0.00000   0.00839  -0.01571   0.03248
           D4           0.00000  -0.00975   0.00839   0.00839   0.02652
 ITU=  0
     Eigenvalues ---    0.03354   0.03627   0.04819   0.10399   0.10900
     Eigenvalues ---    0.11131   0.14418   0.35938   0.35955   0.36209
     Eigenvalues ---    0.36225   0.67054
 Angle between quadratic step and forces=  30.24 degrees.
 Linear search not attempted -- first point.
 Iteration  1 RMS(Cart)=  0.00005296 RMS(Int)=  0.00000000
 Iteration  2 RMS(Cart)=  0.00000000 RMS(Int)=  0.00000000
 Variable       Old X    -DE/DX   Delta X   Delta X   Delta X     New X
                                 (Linear)    (Quad)   (Total)
    R1        2.51668  -0.00004   0.00000  -0.00006  -0.00006   2.51662
    R2        2.07255  -0.00003   0.00000  -0.00007  -0.00007   2.07248
    R3        2.07255  -0.00003   0.00000  -0.00007  -0.00007   2.07248
    R4        2.07255  -0.00003   0.00000  -0.00007  -0.00007   2.07248
    R5        2.07255  -0.00003   0.00000  -0.00007  -0.00007   2.07248
    A1        2.12289  -0.00000   0.00000  -0.00002  -0.00002   2.12288
    A2        2.12288  -0.00000   0.00000  -0.00001  -0.00001   2.12288
    A3        2.03741   0.00000   0.00000   0.00002   0.00002   2.03743
    A4        2.12288  -0.00000   0.00000  -0.00001  -0.00001   2.12288
    A5        2.12289  -0.00000   0.00000  -0.00002  -0.00002   2.12288
    A6        2.03741   0.00000   0.00000   0.00002   0.00002   2.03743
    D1       -0.00005   0.00000   0.00000   0.00005   0.00005   0.00000
    D2        3.14159   0.00000   0.00000   0.00000   0.00000   3.14159
    D3       -3.14159  -0.00000   0.00000  -0.00000  -0.00000   3.14159
    D4        0.00005  -0.00000   0.00000  -0.00005  -0.00005  -0.00000
         Item               Value     Threshold  Converged?
 Maximum Force            0.000042     0.000450     YES
 RMS     Force            0.000017     0.000300     YES
 Maximum Displacement     0.000098     0.001800     YES
 RMS     Displacement     0.000053     0.001200     YES
 Predicted change in Energy=-5.049824D-09
 Optimization completed.
    -- Stationary point found.
                           ----------------------------
                           !   Optimized Parameters   !
                           ! (Angstroms and Degrees)  !
 --------------------------                            --------------------------
 ! Name  Definition              Value          Derivative Info.                !
 --------------------------------------------------------------------------------
 ! R1    R(1,2)                  1.3318         -DE/DX =    0.0                 !
 ! R2    R(1,3)                  1.0967         -DE/DX =    0.0                 !
 ! R3    R(1,4)                  1.0967         -DE/DX =    0.0                 !
 ! R4    R(2,5)                  1.0967         -DE/DX =    0.0                 !
 ! R5    R(2,6)                  1.0967         -DE/DX =    0.0                 !
 ! A1    A(2,1,3)              121.6327         -DE/DX =    0.0                 !
 ! A2    A(2,1,4)              121.6322         -DE/DX =    0.0                 !
 ! A3    A(3,1,4)              116.735          -DE/DX =    0.0                 !
 ! A4    A(1,2,5)              121.6322         -DE/DX =    0.0                 !
 ! A5    A(1,2,6)              121.6327         -DE/DX =    0.0                 !
 ! A6    A(5,2,6)              116.735          -DE/DX =    0.0                 !
 ! D1    D(3,1,2,5)             -0.0031         -DE/DX =    0.0                 !
 ! D2    D(3,1,2,6)            180.0            -DE/DX =    0.0                 !
 ! D3    D(4,1,2,5)            180.0            -DE/DX =    0.0                 !
 ! D4    D(4,1,2,6)              0.0031         -DE/DX =    0.0                 !
 --------------------------------------------------------------------------------
 GradGradGradGradGradGradGradGradGradGradGradGradGradGradGradGradGradGrad


 ----------------------------------------------------------------------

 Electric dipole moment (input orientation):
 (Debye = 10**-18 statcoulomb cm , SI units = C m)
                  (au)            (Debye)         (10**-30 SI)
   Tot        0.000000D+00      0.000000D+00      0.000000D+00
   x          0.000000D+00      0.000000D+00      0.000000D+00
   y          0.000000D+00      0.000000D+00      0.000000D+00
   z          0.000000D+00      0.000000D+00      0.000000D+00

 Dipole polarizability, Alpha (input orientation).
 (esu units = cm**3 , SI units = C**2 m**2 J**-1)
 Alpha(0;0):
               (au)            (10**-24 esu)      (10**-40 SI)
   iso        0.208598D+02      0.309110D+01      0.343932D+01
   aniso      0.185742D+02      0.275242D+01      0.306248D+01
   xx         0.297515D+02      0.440872D+01      0.490537D+01
   yx         0.498132D+01      0.738155D+00      0.821308D+00
   yy         0.204829D+02      0.303525D+01      0.337717D+01
   zx        -0.151145D+01     -0.223974D+00     -0.249205D+00
   zy         0.347118D+01      0.514376D+00      0.572321D+00
   zz         0.123450D+02      0.182934D+01      0.203542D+01

 ----------------------------------------------------------------------

 Dipole orientation:
     6         -1.63016665         -0.25673213         -0.83483299
     6          0.45491428          0.84853340          0.03952841
     1         -3.37314221          0.81565626         -1.16267058
     1         -1.68836201         -2.28390708         -1.26220163
     1          0.51310937          2.87570821          0.46689755
     1          2.19788966         -0.22385515          0.36736652

 Electric dipole moment (dipole orientation):
 (Debye = 10**-18 statcoulomb cm , SI units = C m)
                  (au)            (Debye)         (10**-30 SI)
   Tot        0.000000D+00      0.000000D+00      0.000000D+00
   x          0.000000D+00      0.000000D+00      0.000000D+00
   y          0.000000D+00      0.000000D+00      0.000000D+00
   z          0.000000D+00      0.000000D+00      0.000000D+00

 Dipole polarizability, Alpha (dipole orientation).
 (esu units = cm**3 , SI units = C**2 m**2 J**-1)
 Alpha(0;0):
               (au)            (10**-24 esu)      (10**-40 SI)
   iso        0.208598D+02      0.309110D+01      0.343932D+01
   aniso      0.185742D+02      0.275242D+01      0.306248D+01
   xx         0.274035D+02      0.406079D+01      0.451823D+01
   yx         0.374894D+01      0.555536D+00      0.618117D+00
   yy         0.220751D+02      0.327120D+01      0.363970D+01
   zx         0.603359D+01      0.894085D+00      0.994804D+00
   zy         0.350593D+01      0.519526D+00      0.578050D+00
   zz         0.131007D+02      0.194133D+01      0.216002D+01

 ----------------------------------------------------------------------
 Unable to Open any file for archive entry.
 1\1\GINC-GADI-CPU-CLX-1281\Freq\UwB97XD\def2SVPP\C2H4\NP9048\12-Sep-20
 25\0\\#N Geom=AllCheck Guess=TCheck SCRF=Check GenChk UwB97XD/def2SVPP
  Freq\\Title: Geometrical optimization and frequency calculation\\0,1\
 C,-0.9749535323,-0.0851316102,-0.0000098072\C,0.2460501833,0.446621706
 6,0.0000096278\H,-1.8377921942,0.45547574,0.4075486772\H,-1.1668391145
 ,-1.0851073277,-0.4075417677\H,0.4379357645,1.4465972848,0.4075418653\
 H,1.1088888931,-0.0939857936,-0.4075485954\\Version=ES64L-G16RevC.01\S
 tate=1-A\HF=-78.4915185\S2=0.\S2-1=0.\S2A=0.\RMSD=3.900e-09\RMSF=1.278
 e-05\ZeroPoint=0.0511388\Thermal=0.0541798\ETot=-78.4373387\HTot=-78.4
 363945\GTot=-78.4625771\Dipole=0.,0.,0.0000002\DipoleDeriv=-0.0123461,
 -0.0101911,-0.059035,-0.0101833,0.0066218,0.135554,-0.0590493,0.135547
 7,-0.222028,-0.0123459,-0.0101911,-0.059035,-0.0101834,0.0066218,0.135
 554,-0.0590491,0.1355478,-0.2220279,-0.0332852,0.0283602,0.0475062,0.0
 55245,0.0361499,-0.0599413,0.0594724,-0.0547324,0.1110138,0.0456313,-0
 .0181691,0.0115288,-0.0450617,-0.0427718,-0.0756127,-0.0004231,-0.0808
 153,0.1110141,0.0456312,-0.0181691,0.0115288,-0.0450617,-0.0427717,-0.
 0756127,-0.0004232,-0.0808154,0.1110141,-0.0332853,0.0283602,0.0475062
 ,0.0552451,0.0361499,-0.0599413,0.0594723,-0.0547324,0.1110138\Polar=2
 9.7515384,4.9813152,20.4828882,-1.5114507,3.4711846,12.3449985\Quadrup
 ole=0.7117071,0.3926437,-1.1043508,0.1714847,-0.3602731,0.8271526\PG=C
 01 [X(C2H4)]\NImag=0\\0.84359345,0.13038554,0.60098622,-0.08372908,0.1
 9225462,0.21362189,-0.53284454,-0.18655399,0.01055163,0.84359346,-0.18
 655398,-0.18572916,-0.02424287,0.13038553,0.60098624,0.01055162,-0.024
 24287,-0.06280220,-0.08372899,0.19225467,0.21362190,-0.22816670,0.1079
 2989,0.08499029,-0.01770784,0.01621869,0.01185052,0.24118892,0.1126976
 3,-0.12839431,-0.06238737,-0.01229512,0.01126725,0.00461992,-0.1174008
 8,0.12386563,0.08711231,-0.06146440,-0.08140571,-0.00083191,-0.0009025
 0,0.00599346,-0.09421160,0.06699470,0.07240092,-0.06465546,-0.03941403
 ,-0.01220947,-0.00021890,-0.02856610,-0.01145388,0.00679857,0.01981177
 ,0.00803347,0.06120116,-0.04418297,-0.29190838,-0.10471524,-0.00005110
 ,-0.00622161,-0.00552907,-0.00391772,-0.00798753,-0.00403241,0.0500399
 9,0.30385645,-0.01432953,-0.10563735,-0.08140059,0.00122659,-0.0000075
 0,0.00599315,-0.00251944,-0.00862894,-0.00056310,0.01511735,0.11460413
 ,0.07239583,-0.00021890,-0.02856610,-0.01145388,-0.06465547,-0.0394140
 4,-0.01220949,0.00085624,0.00070365,-0.00156787,-0.00398162,-0.0025752
 9,0.00208040,0.06120117,-0.00005110,-0.00622161,-0.00552907,-0.0441829
 8,-0.29190837,-0.10471531,0.00068709,-0.00043748,0.00361001,-0.0025752
 9,0.00269855,-0.00393744,0.05004000,0.30385644,0.00122659,-0.00000750,
 0.00599315,-0.01432956,-0.10563744,-0.08140064,-0.00157537,0.00360709,
 -0.00694526,0.00208040,-0.00393743,0.01051996,0.01511737,0.11460421,0.
 07239589,-0.01770784,0.01621869,0.01185051,-0.22816670,0.10792990,0.08
 499022,-0.00296919,-0.00351706,0.00146559,0.00085624,0.00068709,-0.001
 57536,0.00679857,-0.00391772,-0.00251944,0.24118892,-0.01229512,0.0112
 6724,0.00461992,0.11269765,-0.12839434,-0.06238735,-0.00351706,0.00168
 644,-0.00420541,0.00070365,-0.00043748,0.00360709,0.01981177,-0.007987
 53,-0.00862893,-0.11740090,0.12386566,-0.00083191,-0.00090250,0.005993
 46,0.08711224,-0.06146437,-0.08140567,0.00146560,-0.00420541,0.0105196
 9,-0.00156787,0.00361001,-0.00694526,0.00803347,-0.00403241,-0.0005631
 0,-0.09421153,0.06699468,0.07240087\\-0.00001198,-0.00000130,-0.000002
 93,0.00001197,0.00000133,0.00000290,-0.00002113,0.00000995,0.00000977,
 -0.00000625,-0.00002388,-0.00000816,0.00000625,0.00002387,0.00000817,0
 .00002114,-0.00000997,-0.00000976\\\@
 The archive entry for this job was punched.


 ERROR IS THE FORCE THAT WELDS MEN TOGETHER....
 TRUTH IS COMMUNICATED TO MEN ONLY BY DEEDS OF TRUTH.
           TOLSTOI,MY RELIGION
 Job cpu time:       0 days  0 hours  1 minutes 32.3 seconds.
 Elapsed time:       0 days  0 hours  0 minutes  4.2 seconds.
 File lengths (MBytes):  RWF=      6 Int=      0 D2E=      0 Chk=      1 Scr=      1
 Normal termination of Gaussian 16 at Fri Sep 12 22:03:11 2025.
