 Entering Gaussian System, Link 0=g16
 Input=DBAE-conformers-20.gau
 Output=DBAE-conformers-20.log
 Initial command:
 /apps/gaussian/g16c01/g16/l1.exe "/jobfs/63263256.gadi-pbs/Gau-762866.inp" -scrdir="/jobfs/63263256.gadi-pbs/"
 Default is to use a total of  20 processors:
                               20 via shared-memory
                                1 via Linda
 Entering Link 1 = /apps/gaussian/g16c01/g16/l1.exe PID=    762867.
  
 Copyright (c) 1988-2019, Gaussian, Inc.  All Rights Reserved.
  
 This is part of the Gaussian(R) 16 program.  It is based on
 the Gaussian(R) 09 system (copyright 2009, Gaussian, Inc.),
 the Gaussian(R) 03 system (copyright 2003, Gaussian, Inc.),
 the Gaussian(R) 98 system (copyright 1998, Gaussian, Inc.),
 the Gaussian(R) 94 system (copyright 1995, Gaussian, Inc.),
 the Gaussian 92(TM) system (copyright 1992, Gaussian, Inc.),
 the Gaussian 90(TM) system (copyright 1990, Gaussian, Inc.),
 the Gaussian 88(TM) system (copyright 1988, Gaussian, Inc.),
 the Gaussian 86(TM) system (copyright 1986, Carnegie Mellon
 University), and the Gaussian 82(TM) system (copyright 1983,
 Carnegie Mellon University). Gaussian is a federally registered
 trademark of Gaussian, Inc.
  
 This software contains proprietary and confidential information,
 including trade secrets, belonging to Gaussian, Inc.
  
 This software is provided under written license and may be
 used, copied, transmitted, or stored only in accord with that
 written license.
  
 The following legend is applicable only to US Government
 contracts under FAR:
  
                    RESTRICTED RIGHTS LEGEND
  
 Use, reproduction and disclosure by the US Government is
 subject to restrictions as set forth in subparagraphs (a)
 and (c) of the Commercial Computer Software - Restricted
 Rights clause in FAR 52.227-19.
  
 Gaussian, Inc.
 340 Quinnipiac St., Bldg. 40, Wallingford CT 06492
  
  
 ---------------------------------------------------------------
 Warning -- This program may not be used in any manner that
 competes with the business of Gaussian, Inc. or will provide
 assistance to any competitor of Gaussian, Inc.  The licensee
 of this program is prohibited from giving any competitor of
 Gaussian, Inc. access to this program.  By using this program,
 the user acknowledges that Gaussian, Inc. is engaged in the
 business of creating and licensing software in the field of
 computational chemistry and represents and warrants to the
 licensee that it is not a competitor of Gaussian, Inc. and that
 it will not use this program in any manner prohibited above.
 ---------------------------------------------------------------
  

 Cite this work as:
 Gaussian 16, Revision C.01,
 M. J. Frisch, G. W. Trucks, H. B. Schlegel, G. E. Scuseria, 
 M. A. Robb, J. R. Cheeseman, G. Scalmani, V. Barone, 
 G. A. Petersson, H. Nakatsuji, X. Li, M. Caricato, A. V. Marenich, 
 J. Bloino, B. G. Janesko, R. Gomperts, B. Mennucci, H. P. Hratchian, 
 J. V. Ortiz, A. F. Izmaylov, J. L. Sonnenberg, D. Williams-Young, 
 F. Ding, F. Lipparini, F. Egidi, J. Goings, B. Peng, A. Petrone, 
 T. Henderson, D. Ranasinghe, V. G. Zakrzewski, J. Gao, N. Rega, 
 G. Zheng, W. Liang, M. Hada, M. Ehara, K. Toyota, R. Fukuda, 
 J. Hasegawa, M. Ishida, T. Nakajima, Y. Honda, O. Kitao, H. Nakai, 
 T. Vreven, K. Throssell, J. A. Montgomery, Jr., J. E. Peralta, 
 F. Ogliaro, M. J. Bearpark, J. J. Heyd, E. N. Brothers, K. N. Kudin, 
 V. N. Staroverov, T. A. Keith, R. Kobayashi, J. Normand, 
 K. Raghavachari, A. P. Rendell, J. C. Burant, S. S. Iyengar, 
 J. Tomasi, M. Cossi, J. M. Millam, M. Klene, C. Adamo, R. Cammi, 
 J. W. Ochterski, R. L. Martin, K. Morokuma, O. Farkas, 
 J. B. Foresman, and D. J. Fox, Gaussian, Inc., Wallingford CT, 2019.
 
 ******************************************
 Gaussian 16:  ES64L-G16RevC.01  3-Jul-2019
                11-Nov-2022 
 ******************************************
 %chk=DBAE-conformers-20.chk
 Default route: Maxdisk=0MB
 ----------------------------------------------------------------------
 # opt(maxcycles=1000) freq=Noraman scf(yqc,maxcycle=500) uwb97xd/6-31+
 G(d,p) scrf=(smd,solvent=acetonitrile)
 ----------------------------------------------------------------------
 1/6=1000,18=20,19=15,26=3,38=1/1,3;
 2/9=110,12=2,17=6,18=5,40=1/2;
 3/5=1,6=6,7=111,11=2,25=1,30=1,70=32201,71=1,72=2,74=-58,116=2/1,2,3;
 4//1;
 5/5=2,7=500,8=4,13=1,38=1,53=2/8,2,8;
 6/7=2,8=2,9=2,10=2,28=1/1;
 7//1,2,3,16;
 1/6=1000,18=20,19=15,26=3/3(2);
 2/9=110/2;
 99//99;
 2/9=110/2;
 3/5=1,6=6,7=111,11=2,25=1,30=1,70=32205,71=1,72=2,74=-58,116=2/1,2,3;
 4/5=5,16=3,69=1/1;
 5/5=2,7=500,8=4,13=1,38=1,53=2/8,2,8;
 7//1,2,3,16;
 1/6=1000,18=20,19=15,26=3/3(-5);
 2/9=110/2;
 6/7=2,8=2,9=2,10=2,19=2,28=1/1;
 99/9=1/99;
 ----------
 OPT + Freq
 ----------
 Symbolic Z-matrix:
 Charge = -1 Multiplicity = 2
 C                    -2.2456   -2.27063   0.72514 
 C                    -0.78644  -1.83539   0.75698 
 N                    -0.55159  -0.78607  -0.23158 
 C                     0.80686  -0.79506  -0.7731 
 C                     1.92899  -0.39762   0.18933 
 C                     3.29717  -0.42566  -0.48977 
 C                     4.43595  -0.02211   0.44334 
 C                    -1.00537   0.52848   0.23547 
 C                    -0.85905   1.62648  -0.81147 
 C                    -1.60704   2.90753  -0.45498 
 C                    -1.07552   3.60717   0.7954 
 O                    -2.65394  -2.50002  -0.61894 
 H                    -2.88974  -1.50824   1.18437 
 H                    -2.37809  -3.20225   1.28211 
 H                    -0.16447  -2.69592   0.48842 
 H                    -0.51149  -1.53647   1.78328 
 H                     0.83744  -0.14197  -1.65915 
 H                     0.99779  -1.81099  -1.14164 
 H                     1.93279  -1.06583   1.06154 
 H                     1.74638   0.6155    0.57329 
 H                     3.27395   0.24795  -1.35765 
 H                     3.48548  -1.43198  -0.88741 
 H                     5.40339  -0.05053  -0.06849 
 H                     4.49497  -0.6942    1.30732 
 H                     4.28967   0.99511   0.82469 
 H                    -0.47629   0.81305   1.16363 
 H                    -2.06363   0.4378    0.50689 
 H                    -1.20806   1.25985  -1.79525 
 H                     0.20272   1.87353  -0.97865 
 H                    -2.67619   2.68959  -0.33277 
 H                    -1.525     3.58985  -1.31642 
 H                    -0.00217   3.80959   0.69986 
 H                    -1.21738   2.99928   1.69557 
 H                    -1.58241   4.56438   0.96146 
 H                    -2.21673  -1.79354  -1.12053 
 

 GradGradGradGradGradGradGradGradGradGradGradGradGradGradGradGradGradGrad
 Berny optimization.
 Initialization pass.
                           ----------------------------
                           !    Initial Parameters    !
                           ! (Angstroms and Degrees)  !
 --------------------------                            --------------------------
 ! Name  Definition              Value          Derivative Info.                !
 --------------------------------------------------------------------------------
 ! R1    R(1,2)                  1.523          estimate D2E/DX2                !
 ! R2    R(1,12)                 1.4233         estimate D2E/DX2                !
 ! R3    R(1,13)                 1.0987         estimate D2E/DX2                !
 ! R4    R(1,14)                 1.0935         estimate D2E/DX2                !
 ! R5    R(2,3)                  1.4606         estimate D2E/DX2                !
 ! R6    R(2,15)                 1.0952         estimate D2E/DX2                !
 ! R7    R(2,16)                 1.1037         estimate D2E/DX2                !
 ! R8    R(3,4)                  1.4624         estimate D2E/DX2                !
 ! R9    R(3,8)                  1.467          estimate D2E/DX2                !
 ! R10   R(4,5)                  1.5308         estimate D2E/DX2                !
 ! R11   R(4,17)                 1.1012         estimate D2E/DX2                !
 ! R12   R(4,18)                 1.0974         estimate D2E/DX2                !
 ! R13   R(5,6)                  1.5277         estimate D2E/DX2                !
 ! R14   R(5,19)                 1.0988         estimate D2E/DX2                !
 ! R15   R(5,20)                 1.0987         estimate D2E/DX2                !
 ! R16   R(6,7)                  1.5266         estimate D2E/DX2                !
 ! R17   R(6,21)                 1.0989         estimate D2E/DX2                !
 ! R18   R(6,22)                 1.0983         estimate D2E/DX2                !
 ! R19   R(7,23)                 1.0949         estimate D2E/DX2                !
 ! R20   R(7,24)                 1.0962         estimate D2E/DX2                !
 ! R21   R(7,25)                 1.0962         estimate D2E/DX2                !
 ! R22   R(8,9)                  1.5242         estimate D2E/DX2                !
 ! R23   R(8,26)                 1.1056         estimate D2E/DX2                !
 ! R24   R(8,27)                 1.0963         estimate D2E/DX2                !
 ! R25   R(9,10)                 1.5257         estimate D2E/DX2                !
 ! R26   R(9,28)                 1.1064         estimate D2E/DX2                !
 ! R27   R(9,29)                 1.1029         estimate D2E/DX2                !
 ! R28   R(10,11)                1.5282         estimate D2E/DX2                !
 ! R29   R(10,30)                1.098          estimate D2E/DX2                !
 ! R30   R(10,31)                1.102          estimate D2E/DX2                !
 ! R31   R(11,32)                1.0964         estimate D2E/DX2                !
 ! R32   R(11,33)                1.0954         estimate D2E/DX2                !
 ! R33   R(11,34)                1.0958         estimate D2E/DX2                !
 ! R34   R(12,35)                0.9705         estimate D2E/DX2                !
 ! A1    A(2,1,12)             109.9163         estimate D2E/DX2                !
 ! A2    A(2,1,13)             110.7735         estimate D2E/DX2                !
 ! A3    A(2,1,14)             110.4203         estimate D2E/DX2                !
 ! A4    A(12,1,13)            109.7761         estimate D2E/DX2                !
 ! A5    A(12,1,14)            107.9946         estimate D2E/DX2                !
 ! A6    A(13,1,14)            107.8951         estimate D2E/DX2                !
 ! A7    A(1,2,3)              110.1935         estimate D2E/DX2                !
 ! A8    A(1,2,15)             108.3265         estimate D2E/DX2                !
 ! A9    A(1,2,16)             109.6022         estimate D2E/DX2                !
 ! A10   A(3,2,15)             107.89           estimate D2E/DX2                !
 ! A11   A(3,2,16)             113.2467         estimate D2E/DX2                !
 ! A12   A(15,2,16)            107.4181         estimate D2E/DX2                !
 ! A13   A(2,3,4)              113.3            estimate D2E/DX2                !
 ! A14   A(2,3,8)              112.2431         estimate D2E/DX2                !
 ! A15   A(4,3,8)              114.2507         estimate D2E/DX2                !
 ! A16   A(3,4,5)              116.5197         estimate D2E/DX2                !
 ! A17   A(3,4,17)             108.6692         estimate D2E/DX2                !
 ! A18   A(3,4,18)             106.9563         estimate D2E/DX2                !
 ! A19   A(5,4,17)             109.3632         estimate D2E/DX2                !
 ! A20   A(5,4,18)             108.9013         estimate D2E/DX2                !
 ! A21   A(17,4,18)            105.902          estimate D2E/DX2                !
 ! A22   A(4,5,6)              111.8537         estimate D2E/DX2                !
 ! A23   A(4,5,19)             110.1037         estimate D2E/DX2                !
 ! A24   A(4,5,20)             109.7106         estimate D2E/DX2                !
 ! A25   A(6,5,19)             109.7925         estimate D2E/DX2                !
 ! A26   A(6,5,20)             108.7303         estimate D2E/DX2                !
 ! A27   A(19,5,20)            106.4957         estimate D2E/DX2                !
 ! A28   A(5,6,7)              113.0485         estimate D2E/DX2                !
 ! A29   A(5,6,21)             108.7183         estimate D2E/DX2                !
 ! A30   A(5,6,22)             109.3485         estimate D2E/DX2                !
 ! A31   A(7,6,21)             109.6621         estimate D2E/DX2                !
 ! A32   A(7,6,22)             109.6099         estimate D2E/DX2                !
 ! A33   A(21,6,22)            106.2213         estimate D2E/DX2                !
 ! A34   A(6,7,23)             111.5033         estimate D2E/DX2                !
 ! A35   A(6,7,24)             111.0912         estimate D2E/DX2                !
 ! A36   A(6,7,25)             111.0035         estimate D2E/DX2                !
 ! A37   A(23,7,24)            107.7558         estimate D2E/DX2                !
 ! A38   A(23,7,25)            107.736          estimate D2E/DX2                !
 ! A39   A(24,7,25)            107.5745         estimate D2E/DX2                !
 ! A40   A(3,8,9)              113.3999         estimate D2E/DX2                !
 ! A41   A(3,8,26)             110.4802         estimate D2E/DX2                !
 ! A42   A(3,8,27)             107.6567         estimate D2E/DX2                !
 ! A43   A(9,8,26)             110.1988         estimate D2E/DX2                !
 ! A44   A(9,8,27)             108.8033         estimate D2E/DX2                !
 ! A45   A(26,8,27)            105.9854         estimate D2E/DX2                !
 ! A46   A(8,9,10)             113.4107         estimate D2E/DX2                !
 ! A47   A(8,9,28)             109.9847         estimate D2E/DX2                !
 ! A48   A(8,9,29)             110.9726         estimate D2E/DX2                !
 ! A49   A(10,9,28)            109.3515         estimate D2E/DX2                !
 ! A50   A(10,9,29)            108.6222         estimate D2E/DX2                !
 ! A51   A(28,9,29)            104.0722         estimate D2E/DX2                !
 ! A52   A(9,10,11)            113.8959         estimate D2E/DX2                !
 ! A53   A(9,10,30)            109.6789         estimate D2E/DX2                !
 ! A54   A(9,10,31)            107.5019         estimate D2E/DX2                !
 ! A55   A(11,10,30)           109.7845         estimate D2E/DX2                !
 ! A56   A(11,10,31)           109.2831         estimate D2E/DX2                !
 ! A57   A(30,10,31)           106.4036         estimate D2E/DX2                !
 ! A58   A(10,11,32)           110.7136         estimate D2E/DX2                !
 ! A59   A(10,11,33)           111.916          estimate D2E/DX2                !
 ! A60   A(10,11,34)           111.286          estimate D2E/DX2                !
 ! A61   A(32,11,33)           107.5076         estimate D2E/DX2                !
 ! A62   A(32,11,34)           107.745          estimate D2E/DX2                !
 ! A63   A(33,11,34)           107.4767         estimate D2E/DX2                !
 ! A64   A(1,12,35)            103.9749         estimate D2E/DX2                !
 ! D1    D(12,1,2,3)            47.619          estimate D2E/DX2                !
 ! D2    D(12,1,2,15)          -70.1965         estimate D2E/DX2                !
 ! D3    D(12,1,2,16)          172.8867         estimate D2E/DX2                !
 ! D4    D(13,1,2,3)           -73.8698         estimate D2E/DX2                !
 ! D5    D(13,1,2,15)          168.3148         estimate D2E/DX2                !
 ! D6    D(13,1,2,16)           51.3979         estimate D2E/DX2                !
 ! D7    D(14,1,2,3)           166.6644         estimate D2E/DX2                !
 ! D8    D(14,1,2,15)           48.849          estimate D2E/DX2                !
 ! D9    D(14,1,2,16)          -68.0679         estimate D2E/DX2                !
 ! D10   D(2,1,12,35)          -38.794          estimate D2E/DX2                !
 ! D11   D(13,1,12,35)          83.2893         estimate D2E/DX2                !
 ! D12   D(14,1,12,35)        -159.3162         estimate D2E/DX2                !
 ! D13   D(1,2,3,4)           -149.6568         estimate D2E/DX2                !
 ! D14   D(1,2,3,8)             79.0978         estimate D2E/DX2                !
 ! D15   D(15,2,3,4)           -31.5724         estimate D2E/DX2                !
 ! D16   D(15,2,3,8)          -162.8178         estimate D2E/DX2                !
 ! D17   D(16,2,3,4)            87.179          estimate D2E/DX2                !
 ! D18   D(16,2,3,8)           -44.0664         estimate D2E/DX2                !
 ! D19   D(2,3,4,5)            -68.7582         estimate D2E/DX2                !
 ! D20   D(2,3,4,17)           167.2046         estimate D2E/DX2                !
 ! D21   D(2,3,4,18)            53.29           estimate D2E/DX2                !
 ! D22   D(8,3,4,5)             61.486          estimate D2E/DX2                !
 ! D23   D(8,3,4,17)           -62.5512         estimate D2E/DX2                !
 ! D24   D(8,3,4,18)          -176.4658         estimate D2E/DX2                !
 ! D25   D(2,3,8,9)           -176.1196         estimate D2E/DX2                !
 ! D26   D(2,3,8,26)            59.6011         estimate D2E/DX2                !
 ! D27   D(2,3,8,27)           -55.7011         estimate D2E/DX2                !
 ! D28   D(4,3,8,9)             53.1168         estimate D2E/DX2                !
 ! D29   D(4,3,8,26)           -71.1625         estimate D2E/DX2                !
 ! D30   D(4,3,8,27)           173.5353         estimate D2E/DX2                !
 ! D31   D(3,4,5,6)           -179.25           estimate D2E/DX2                !
 ! D32   D(3,4,5,19)            58.3858         estimate D2E/DX2                !
 ! D33   D(3,4,5,20)           -58.5066         estimate D2E/DX2                !
 ! D34   D(17,4,5,6)           -55.5693         estimate D2E/DX2                !
 ! D35   D(17,4,5,19)         -177.9335         estimate D2E/DX2                !
 ! D36   D(17,4,5,20)           65.1741         estimate D2E/DX2                !
 ! D37   D(18,4,5,6)            59.7273         estimate D2E/DX2                !
 ! D38   D(18,4,5,19)          -62.6369         estimate D2E/DX2                !
 ! D39   D(18,4,5,20)         -179.5292         estimate D2E/DX2                !
 ! D40   D(4,5,6,7)            179.5203         estimate D2E/DX2                !
 ! D41   D(4,5,6,21)            57.498          estimate D2E/DX2                !
 ! D42   D(4,5,6,22)           -58.0702         estimate D2E/DX2                !
 ! D43   D(19,5,6,7)           -57.9379         estimate D2E/DX2                !
 ! D44   D(19,5,6,21)         -179.9602         estimate D2E/DX2                !
 ! D45   D(19,5,6,22)           64.4716         estimate D2E/DX2                !
 ! D46   D(20,5,6,7)            58.2087         estimate D2E/DX2                !
 ! D47   D(20,5,6,21)          -63.8136         estimate D2E/DX2                !
 ! D48   D(20,5,6,22)         -179.3819         estimate D2E/DX2                !
 ! D49   D(5,6,7,23)          -179.9775         estimate D2E/DX2                !
 ! D50   D(5,6,7,24)            59.8064         estimate D2E/DX2                !
 ! D51   D(5,6,7,25)           -59.8461         estimate D2E/DX2                !
 ! D52   D(21,6,7,23)          -58.4858         estimate D2E/DX2                !
 ! D53   D(21,6,7,24)         -178.702          estimate D2E/DX2                !
 ! D54   D(21,6,7,25)           61.6455         estimate D2E/DX2                !
 ! D55   D(22,6,7,23)           57.7592         estimate D2E/DX2                !
 ! D56   D(22,6,7,24)          -62.457          estimate D2E/DX2                !
 ! D57   D(22,6,7,25)          177.8905         estimate D2E/DX2                !
 ! D58   D(3,8,9,10)           167.0109         estimate D2E/DX2                !
 ! D59   D(3,8,9,28)            44.2131         estimate D2E/DX2                !
 ! D60   D(3,8,9,29)           -70.3994         estimate D2E/DX2                !
 ! D61   D(26,8,9,10)          -68.5571         estimate D2E/DX2                !
 ! D62   D(26,8,9,28)          168.645          estimate D2E/DX2                !
 ! D63   D(26,8,9,29)           54.0325         estimate D2E/DX2                !
 ! D64   D(27,8,9,10)           47.2442         estimate D2E/DX2                !
 ! D65   D(27,8,9,28)          -75.5537         estimate D2E/DX2                !
 ! D66   D(27,8,9,29)          169.8338         estimate D2E/DX2                !
 ! D67   D(8,9,10,11)           64.6099         estimate D2E/DX2                !
 ! D68   D(8,9,10,30)          -58.8693         estimate D2E/DX2                !
 ! D69   D(8,9,10,31)         -174.1626         estimate D2E/DX2                !
 ! D70   D(28,9,10,11)        -172.2434         estimate D2E/DX2                !
 ! D71   D(28,9,10,30)          64.2775         estimate D2E/DX2                !
 ! D72   D(28,9,10,31)         -51.0158         estimate D2E/DX2                !
 ! D73   D(29,9,10,11)         -59.2711         estimate D2E/DX2                !
 ! D74   D(29,9,10,30)         177.2497         estimate D2E/DX2                !
 ! D75   D(29,9,10,31)          61.9564         estimate D2E/DX2                !
 ! D76   D(9,10,11,32)          55.1585         estimate D2E/DX2                !
 ! D77   D(9,10,11,33)         -64.7628         estimate D2E/DX2                !
 ! D78   D(9,10,11,34)         174.9618         estimate D2E/DX2                !
 ! D79   D(30,10,11,32)        178.5803         estimate D2E/DX2                !
 ! D80   D(30,10,11,33)         58.659          estimate D2E/DX2                !
 ! D81   D(30,10,11,34)        -61.6164         estimate D2E/DX2                !
 ! D82   D(31,10,11,32)        -65.0727         estimate D2E/DX2                !
 ! D83   D(31,10,11,33)        175.0061         estimate D2E/DX2                !
 ! D84   D(31,10,11,34)         54.7306         estimate D2E/DX2                !
 --------------------------------------------------------------------------------
 Trust Radius=3.00D-01 FncErr=1.00D-07 GrdErr=1.00D-06 EigMax=2.50D+02 EigMin=1.00D-04
 Number of steps in this run=    210 maximum allowed number of steps=    210.
 GradGradGradGradGradGradGradGradGradGradGradGradGradGradGradGradGradGrad

                          Input orientation:                          
 ---------------------------------------------------------------------
 Center     Atomic      Atomic             Coordinates (Angstroms)
 Number     Number       Type             X           Y           Z
 ---------------------------------------------------------------------
      1          6           0       -2.245601   -2.270627    0.725143
      2          6           0       -0.786436   -1.835393    0.756978
      3          7           0       -0.551589   -0.786070   -0.231575
      4          6           0        0.806860   -0.795060   -0.773101
      5          6           0        1.928993   -0.397622    0.189334
      6          6           0        3.297166   -0.425662   -0.489773
      7          6           0        4.435945   -0.022114    0.443339
      8          6           0       -1.005371    0.528475    0.235473
      9          6           0       -0.859047    1.626478   -0.811468
     10          6           0       -1.607040    2.907527   -0.454976
     11          6           0       -1.075521    3.607173    0.795402
     12          8           0       -2.653935   -2.500018   -0.618942
     13          1           0       -2.889741   -1.508236    1.184365
     14          1           0       -2.378088   -3.202246    1.282114
     15          1           0       -0.164466   -2.695916    0.488418
     16          1           0       -0.511493   -1.536465    1.783275
     17          1           0        0.837437   -0.141973   -1.659154
     18          1           0        0.997786   -1.810986   -1.141636
     19          1           0        1.932793   -1.065828    1.061541
     20          1           0        1.746383    0.615499    0.573286
     21          1           0        3.273953    0.247952   -1.357649
     22          1           0        3.485477   -1.431977   -0.887411
     23          1           0        5.403386   -0.050532   -0.068485
     24          1           0        4.494965   -0.694203    1.307320
     25          1           0        4.289673    0.995113    0.824688
     26          1           0       -0.476287    0.813047    1.163630
     27          1           0       -2.063627    0.437804    0.506892
     28          1           0       -1.208062    1.259845   -1.795248
     29          1           0        0.202721    1.873532   -0.978649
     30          1           0       -2.676189    2.689591   -0.332772
     31          1           0       -1.524999    3.589847   -1.316422
     32          1           0       -0.002171    3.809586    0.699857
     33          1           0       -1.217384    2.999280    1.695569
     34          1           0       -1.582412    4.564383    0.961463
     35          1           0       -2.216733   -1.793537   -1.120528
 ---------------------------------------------------------------------
                    Distance matrix (angstroms):
                    1          2          3          4          5
     1  C    0.000000
     2  C    1.523025   0.000000
     3  N    2.447222   1.460640   0.000000
     4  C    3.706690   2.441726   1.462435   0.000000
     5  C    4.606786   3.124574   2.545848   1.530823   0.000000
     6  C    5.966756   4.496391   3.874206   2.533447   1.527701
     7  C    7.055373   5.537112   5.090642   3.904796   2.547613
     8  C    3.100471   2.430591   1.466997   2.460315   3.077381
     9  C    4.412611   3.801295   2.500239   2.939484   3.587722
    10  C    5.349179   4.963619   3.847927   4.431396   4.882896
    11  C    5.993543   5.450373   4.542001   5.038176   5.043095
    12  O    1.423349   2.412972   2.739987   3.861055   5.106526
    13  H    1.098654   2.171079   2.827254   4.243248   5.044180
    14  H    1.093473   2.162732   3.386039   4.490250   5.254620
    15  H    2.137296   1.095204   2.077442   2.479548   3.123168
    16  H    2.160039   1.103738   2.150423   2.970319   3.129470
    17  H    4.440852   3.367837   2.093379   1.101157   2.161888
    18  H    3.770370   2.605529   2.068629   1.097441   2.153190
    19  H    4.361614   2.842393   2.814706   2.169551   1.098753
    20  H    4.928359   3.529276   2.809426   2.164518   1.098717
    21  H    6.414572   5.029785   4.119711   2.741554   2.149149
    22  H    6.012397   4.595215   4.140679   2.755670   2.156829
    23  H    8.004103   6.494691   6.002445   4.709443   3.501192
    24  H    6.946889   5.431242   5.276774   4.235616   2.814616
    25  H    7.306488   5.812334   5.265560   4.229378   2.813573
    26  H    3.582149   2.697368   2.123545   2.825491   2.863624
    27  H    2.723297   2.619386   2.080735   3.376097   4.091429
    28  H    4.460167   4.033872   2.657404   3.054068   4.065326
    29  H    5.106001   4.212714   2.863667   2.743833   3.082587
    30  H    5.090025   5.023366   4.074848   4.946546   5.568768
    31  H    6.247592   5.854715   4.612274   4.996016   5.486098
    32  H    6.480942   5.699484   4.721174   4.901724   4.657320
    33  H    5.456269   4.943757   4.299540   4.958721   4.869022
    34  H    6.871174   6.452327   5.577928   6.118902   6.127613
    35  H    1.906554   2.360621   2.139610   3.203089   4.566329
                    6          7          8          9         10
     6  C    0.000000
     7  C    1.526554   0.000000
     8  C    4.466339   5.473050   0.000000
     9  C    4.646383   5.685889   1.524174   0.000000
    10  C    5.929806   6.775502   2.549238   1.525669   0.000000
    11  C    6.085707   6.608474   3.129988   2.559696   1.528222
    12  O    6.303589   7.585173   3.552402   4.504071   5.510392
    13  H    6.500194   7.511548   2.932480   4.234796   4.881775
    14  H    6.561822   7.566229   4.110728   5.477878   6.398541
    15  H    4.253682   5.321187   3.341826   4.566753   5.862558
    16  H    4.572364   5.344701   2.627467   4.105812   5.095003
    17  H    2.738284   4.169425   2.726729   2.593077   4.089616
    18  H    2.762462   4.187260   3.373743   3.920842   5.433322
    19  H    2.162846   2.781597   3.443399   4.307092   5.533335
    20  H    2.149195   2.767161   2.773777   3.118956   4.190007
    21  H    1.098865   2.160259   4.574860   4.390938   5.631363
    22  H    1.098293   2.159166   5.027122   5.313643   6.704627
    23  H    2.180452   1.094858   6.442034   6.525523   7.618764
    24  H    2.176323   1.096198   5.735634   6.208081   7.301549
    25  H    2.175196   1.096163   5.348123   5.439205   6.329778
    26  H    4.301987   5.034514   1.105616   2.170066   2.878426
    27  H    5.520599   6.516134   1.096264   2.145235   2.689460
    28  H    4.984203   6.205603   2.167905   1.106370   2.161104
    29  H    3.885985   4.851362   2.177787   1.102876   2.149096
    30  H    6.738725   7.651022   2.790154   2.159019   1.097957
    31  H    6.329371   7.188593   3.471367   2.133844   1.101989
    32  H    5.498924   5.868952   3.462333   2.790036   2.173236
    33  H    6.073476   6.531235   2.877796   2.880664   2.187486
    34  H    7.128598   7.584526   4.141086   3.506826   2.179926
    35  H    5.715944   7.059869   2.949216   3.692605   4.786929
                   11         12         13         14         15
    11  C    0.000000
    12  O    6.464483   0.000000
    13  H    5.441516   2.071510   0.000000
    14  H    6.949947   2.045295   1.772290   0.000000
    15  H    6.375986   2.731680   3.053203   2.405503   0.000000
    16  H    5.267925   3.359931   2.452663   2.551503   1.772402
    17  H    4.872407   4.339596   4.883045   5.325029   3.484035
    18  H    6.116140   3.752738   4.540353   4.382544   2.188837
    19  H    5.563966   5.091070   4.844342   4.816288   2.717380
    20  H    4.118567   5.521834   5.135885   5.664704   3.824136
    21  H    5.902365   6.575476   6.894719   7.128659   4.888461
    22  H    7.001971   6.237401   6.703840   6.497852   4.100309
    23  H    7.490083   8.439396   8.512960   8.503456   6.189440
    24  H    7.056501   7.620907   7.430454   7.316404   5.136901
    25  H    5.967330   7.906561   7.611840   7.892154   5.794491
    26  H    2.881287   4.346966   3.348663   4.444487   3.586916
    27  H    3.332340   3.201057   2.220024   3.734946   3.664336
    28  H    3.498426   4.196524   4.400956   5.545212   4.685325
    29  H    2.790461   5.236202   5.067377   6.126593   4.813208
    30  H    2.162608   5.197541   4.468675   6.116409   5.998899
    31  H    2.159197   6.232771   5.840112   7.322068   6.679769
    32  H    1.096440   6.970092   6.070588   7.426291   6.510960
    33  H    1.095427   6.137012   4.834853   6.322745   5.916173
    34  H    1.095795   7.317896   6.215746   7.813862   7.412576
    35  H    5.843015   0.970489   2.418030   2.789836   2.759492
                   16         17         18         19         20
    16  H    0.000000
    17  H    3.951523   0.000000
    18  H    3.302785   1.754748   0.000000
    19  H    2.591705   3.074979   2.506689   0.000000
    20  H    3.345598   2.526605   3.064178   1.760682   0.000000
    21  H    5.232509   2.485871   3.076820   3.062223   2.489392
    22  H    4.808248   3.044965   2.529206   2.518592   3.057816
    23  H    6.373602   4.835957   4.864171   3.788509   3.772153
    24  H    5.099074   4.741565   4.413032   2.600623   3.131905
    25  H    5.511712   4.402314   4.751541   3.139819   2.583725
    26  H    2.430104   3.256692   3.791133   3.056838   2.308201
    27  H    2.817093   3.666615   4.140888   4.305800   3.814729
    28  H    4.594604   2.483482   3.837053   4.840968   3.841078
    29  H    4.445943   2.219958   3.772846   3.974338   2.524686
    30  H    5.198376   4.703468   5.865795   6.106554   4.968092
    31  H    6.075721   4.430017   5.963555   6.267882   4.808293
    32  H    5.478455   4.678108   5.998486   5.257810   3.643577
    33  H    4.591183   5.034275   6.007942   5.181767   3.965583
    34  H    6.248407   5.905344   7.192063   6.638219   5.179309
    35  H    3.377277   3.513650   3.214636   4.744423   4.937484
                   21         22         23         24         25
    21  H    0.000000
    22  H    1.757278   0.000000
    23  H    2.507094   2.501481   0.000000
    24  H    3.079056   2.525910   1.769853   0.000000
    25  H    2.520423   3.077138   1.769601   1.768860   0.000000
    26  H    4.554172   4.994244   6.069138   5.196710   4.781465
    27  H    5.657059   6.019362   7.505053   6.703525   6.385609
    28  H    4.615613   5.486290   6.957733   6.780026   6.095838
    29  H    3.495514   4.659528   5.619372   5.499298   4.552672
    30  H    6.512769   7.433779   8.535670   8.097247   7.261832
    31  H    5.848068   7.106872   7.925416   7.840732   6.717694
    32  H    5.258475   6.492849   6.686621   6.393540   5.133884
    33  H    6.088025   6.958788   7.499856   6.813478   5.924761
    34  H    6.898850   8.065864   8.435615   8.044057   6.873120
    35  H    5.862724   5.718415   7.887400   7.221487   7.341236
                   26         27         28         29         30
    26  H    0.000000
    27  H    1.758340   0.000000
    28  H    3.080598   2.589902   0.000000
    29  H    2.484963   3.066672   1.741768   0.000000
    30  H    3.255796   2.480083   2.517619   3.061247   0.000000
    31  H    3.867955   3.681028   2.399715   2.458626   1.761609
    32  H    3.069058   3.956735   3.765754   2.570539   3.077513
    33  H    2.368924   2.947921   3.900195   3.230395   2.517576
    34  H    3.916236   4.179337   4.319672   3.767149   2.527101
    35  H    3.878248   2.766012   3.285697   4.395598   4.574942
                   31         32         33         34         35
    31  H    0.000000
    32  H    2.536271   0.000000
    33  H    3.084718   1.767705   0.000000
    34  H    2.478261   1.770683   1.766835   0.000000
    35  H    5.431178   6.293892   5.648026   6.720134   0.000000
 Stoichiometry    C10H23NO(1-,2)
 Framework group  C1[X(C10H23NO)]
 Deg. of freedom    99
 Full point group                 C1      NOp   1
 Largest Abelian subgroup         C1      NOp   1
 Largest concise Abelian subgroup C1      NOp   1
                         Standard orientation:                         
 ---------------------------------------------------------------------
 Center     Atomic      Atomic             Coordinates (Angstroms)
 Number     Number       Type             X           Y           Z
 ---------------------------------------------------------------------
      1          6           0       -2.245601   -2.270627    0.725143
      2          6           0       -0.786436   -1.835393    0.756978
      3          7           0       -0.551589   -0.786070   -0.231575
      4          6           0        0.806860   -0.795060   -0.773101
      5          6           0        1.928993   -0.397622    0.189334
      6          6           0        3.297166   -0.425662   -0.489773
      7          6           0        4.435945   -0.022114    0.443339
      8          6           0       -1.005371    0.528475    0.235473
      9          6           0       -0.859047    1.626478   -0.811468
     10          6           0       -1.607040    2.907527   -0.454976
     11          6           0       -1.075521    3.607173    0.795402
     12          8           0       -2.653935   -2.500018   -0.618942
     13          1           0       -2.889741   -1.508236    1.184365
     14          1           0       -2.378088   -3.202246    1.282114
     15          1           0       -0.164466   -2.695916    0.488418
     16          1           0       -0.511493   -1.536465    1.783275
     17          1           0        0.837437   -0.141973   -1.659154
     18          1           0        0.997786   -1.810986   -1.141636
     19          1           0        1.932793   -1.065828    1.061541
     20          1           0        1.746383    0.615499    0.573286
     21          1           0        3.273953    0.247952   -1.357649
     22          1           0        3.485477   -1.431977   -0.887411
     23          1           0        5.403386   -0.050532   -0.068485
     24          1           0        4.494965   -0.694203    1.307320
     25          1           0        4.289673    0.995113    0.824688
     26          1           0       -0.476287    0.813047    1.163630
     27          1           0       -2.063627    0.437804    0.506892
     28          1           0       -1.208062    1.259845   -1.795248
     29          1           0        0.202721    1.873532   -0.978649
     30          1           0       -2.676189    2.689591   -0.332772
     31          1           0       -1.524999    3.589847   -1.316422
     32          1           0       -0.002171    3.809586    0.699857
     33          1           0       -1.217384    2.999280    1.695569
     34          1           0       -1.582412    4.564383    0.961463
     35          1           0       -2.216733   -1.793537   -1.120528
 ---------------------------------------------------------------------
 Rotational constants (GHZ):           0.7212538           0.5669843           0.3538467
 Standard basis: 6-31+G(d,p) (6D, 7F)
 There are   343 symmetry adapted cartesian basis functions of A   symmetry.
 There are   343 symmetry adapted basis functions of A   symmetry.
   343 basis functions,   545 primitive gaussians,   343 cartesian basis functions
    50 alpha electrons       49 beta electrons
       nuclear repulsion energy       771.8622650005 Hartrees.
 NAtoms=   35 NActive=   35 NUniq=   35 SFac= 1.00D+00 NAtFMM=   60 NAOKFM=F Big=F
 Integral buffers will be    131072 words long.
 Raffenetti 2 integral format.
 Two-electron integral symmetry is turned on.
 Nuclear repulsion after empirical dispersion term =      771.8349935916 Hartrees.
 ------------------------------------------------------------------------------
 Polarizable Continuum Model (PCM)
 =================================
 Model                : PCM.
 Atomic radii         : SMD-Coulomb.
 Polarization charges : Total charges.
 Charge compensation  : None.
 Solution method      : On-the-fly selection.
 Cavity type          : VdW (van der Waals Surface) (Alpha=1.000).
 Cavity algorithm     : GePol (No added spheres)
                        Default sphere list used, NSphG=   35.
                        Lebedev-Laikov grids with approx.  5.0 points / Ang**2.
                        Smoothing algorithm: York/Karplus (Gamma=1.0000).
                        Polarization charges: spherical gaussians, with
                                              point-specific exponents (IZeta= 3).
                        Self-potential: point-specific (ISelfS= 7).
                        Self-field    : sphere-specific E.n sum rule (ISelfD= 2).
 1st derivatives      : Analytical E(r).r(x)/FMM algorithm (CHGder, D1EAlg=3).
                        Cavity 1st derivative terms included.
 Solvent              : Acetonitrile, Eps=  35.688000 Eps(inf)=   1.806874
 ------------------------------------------------------------------------------
 ------------------------------------------------------------------------------
 Atomic radii for non-electrostatic terms: SMD-CDS.
 ------------------------------------------------------------------------------
 Nuclear repulsion after PCM non-electrostatic terms =      771.8303506187 Hartrees.
 One-electron integrals computed using PRISM.
 NBasis=   343 RedAO= T EigKep=  1.29D-05  NBF=   343
 NBsUse=   343 1.00D-06 EigRej= -1.00D+00 NBFU=   343
 ExpMin= 4.38D-02 ExpMax= 5.48D+03 ExpMxC= 8.25D+02 IAcc=3 IRadAn=         5 AccDes= 0.00D+00
 Harris functional with IExCor= 4639 and IRadAn=       5 diagonalized for initial guess.
 HarFok:  IExCor= 4639 AccDes= 0.00D+00 IRadAn=         5 IDoV= 1 UseB2=F ITyADJ=14
 ICtDFT=  3500011 ScaDFX=  1.000000  1.000000  1.000000  1.000000
 FoFCou: FMM=F IPFlag=           0 FMFlag=      100000 FMFlg1=           0
         NFxFlg=           0 DoJE=T BraDBF=F KetDBF=T FulRan=T
         wScrn=  0.000000 ICntrl=       500 IOpCl=  0 I1Cent=   200000004 NGrid=           0
         NMat0=    1 NMatS0=      1 NMatT0=    0 NMatD0=    1 NMtDS0=    0 NMtDT0=    0
 Petite list used in FoFCou.
 Initial guess <Sx>= 0.0000 <Sy>= 0.0000 <Sz>= 0.5000 <S**2>= 0.7500 S= 0.5000
 Inv3:  Mode=1 IEnd=    15925248.
 Iteration    1 A*A^-1 deviation from unit magnitude is 5.55D-15 for   2296.
 Iteration    1 A*A^-1 deviation from orthogonality  is 2.05D-15 for   2293   2224.
 Iteration    1 A^-1*A deviation from unit magnitude is 5.11D-15 for   2293.
 Iteration    1 A^-1*A deviation from orthogonality  is 1.12D-14 for   1304   1189.
 Gradient too large for Newton-Raphson -- use scaled steepest descent instead.
 Gradient too large for Newton-Raphson -- use scaled steepest descent instead.
     Minimum is close to point  3 DX=  6.82D-03 DF= -1.60D-06 DXR=  9.65D-03 DFR=  9.32D-05 which will be used.
 Gradient too large for Newton-Raphson -- use scaled steepest descent instead.
     Minimum is close to point  2 DX=  6.92D-02 DF= -3.61D-05 DXR=  9.00D-02 DFR=  8.16D-03 which will be used.
 Gradient too large for Newton-Raphson -- use scaled steepest descent instead.
     Accept linear search using points  2 and  3.
 Gradient too large for Newton-Raphson -- use scaled steepest descent instead.
     Accept linear search using points  1 and  2.
 Gradient too large for Newton-Raphson -- use scaled steepest descent instead.
     Minimum is close to point  2 DX=  6.91D-02 DF= -7.26D-06 DXR=  7.13D-02 DFR=  5.11D-03 which will be used.
 Gradient too large for Newton-Raphson -- use scaled steepest descent instead.
     Accept linear search using points  1 and  2.
     Minimum is close to point  2 DX= -5.34D-02 DF= -3.35D-06 DXR=  6.31D-02 DFR=  3.28D-03 which will be used.
 Gradient too large for Newton-Raphson -- use scaled steepest descent instead.
     Accept linear search using points  1 and  2.
 Gradient too large for Newton-Raphson -- use scaled steepest descent instead.
 Restarting incremental Fock formation.
 Gradient too large for Newton-Raphson -- use scaled steepest descent instead.
     Accept linear search using points  1 and  2.
 Gradient too large for Newton-Raphson -- use scaled steepest descent instead.
 Gradient too large for Newton-Raphson -- use scaled steepest descent instead.
     Accept linear search using points  1 and  2.
 SCF Done:  E(UwB97XD) =  -524.788277423     a.u. after   13 cycles
            Convg  =    0.5889D-02                    30 Fock formations.
              S**2 =  0.7504                  -V/T =  2.0096
 <Sx>= 0.0000 <Sy>= 0.0000 <Sz>= 0.5000 <S**2>= 0.7504 S= 0.5002
 <L.S>= 0.000000000000E+00
 SMD-CDS (non-electrostatic) energy       (kcal/mol) =      -2.91
 (included in total energy above)
 Annihilation of the first spin contaminant:
 S**2 before annihilation     0.7504,   after     0.7500
 Requested convergence on RMS density matrix=1.00D-08 within 128 cycles.
 Requested convergence on MAX density matrix=1.00D-06.
 Requested convergence on             energy=1.00D-06.
 No special actions if energy rises.
 Restarting incremental Fock formation.
 Restarting incremental Fock formation.
 Restarting incremental Fock formation.
 Restarting incremental Fock formation.
 Restarting incremental Fock formation.
 Restarting incremental Fock formation.
 >>>>>>>>>> Convergence criterion not met.
 Error on total polarization charges =  0.18239
 SCF Done:  E(UwB97XD) =  -524.788656963     A.U. after  129 cycles
            NFock=128  Conv=0.11D-02     -V/T= 2.0096
 <Sx>= 0.0000 <Sy>= 0.0000 <Sz>= 0.5000 <S**2>= 0.7505 S= 0.5002
 <L.S>= 0.000000000000E+00
 SMD-CDS (non-electrostatic) energy       (kcal/mol) =      -2.91
 (included in total energy above)
 Annihilation of the first spin contaminant:
 S**2 before annihilation     0.7505,   after     0.7500
 LinEq1:  Iter=  0 NonCon=     1 RMS=2.08D-05 Max=1.77D-03 NDo=     1
 AX will form     1 AO Fock derivatives at one time.
 LinEq1:  Iter=  1 NonCon=     1 RMS=4.00D-06 Max=2.86D-04 NDo=     1
 LinEq1:  Iter=  2 NonCon=     1 RMS=2.60D-06 Max=1.15D-04 NDo=     1
 LinEq1:  Iter=  3 NonCon=     1 RMS=1.43D-06 Max=5.95D-05 NDo=     1
 LinEq1:  Iter=  4 NonCon=     1 RMS=5.94D-07 Max=1.91D-05 NDo=     1
 LinEq1:  Iter=  5 NonCon=     1 RMS=3.06D-07 Max=1.47D-05 NDo=     1
 LinEq1:  Iter=  6 NonCon=     1 RMS=1.21D-07 Max=5.70D-06 NDo=     1
 LinEq1:  Iter=  7 NonCon=     1 RMS=6.86D-08 Max=4.05D-06 NDo=     1
 LinEq1:  Iter=  8 NonCon=     1 RMS=4.74D-08 Max=2.91D-06 NDo=     1
 LinEq1:  Iter=  9 NonCon=     1 RMS=2.34D-08 Max=9.91D-07 NDo=     1
 LinEq1:  Iter= 10 NonCon=     1 RMS=1.25D-08 Max=3.58D-07 NDo=     1
 LinEq1:  Iter= 11 NonCon=     1 RMS=5.32D-09 Max=1.69D-07 NDo=     1
 LinEq1:  Iter= 12 NonCon=     0 RMS=1.70D-09 Max=6.38D-08 NDo=     1
 Linear equations converged to 8.797D-09 8.797D-08 after    12 iterations.
 Incorrect curvature in search direction -- initial direction reversed.
     Accept linear search using points  2 and  3.
     Minimum is close to point  3 DX= -1.25D-01 DF= -4.35D-06 DXR=  9.07D-02 DFR=  1.42D-02 which will be used.
 LinEq1:  Iter=  0 NonCon=     1 RMS=1.68D-04 Max=1.17D-02 NDo=     1
 LinEq1:  Iter=  1 NonCon=     1 RMS=3.95D-05 Max=4.33D-03 NDo=     1
 LinEq1:  Iter=  2 NonCon=     1 RMS=2.53D-05 Max=1.81D-03 NDo=     1
 LinEq1:  Iter=  3 NonCon=     1 RMS=1.25D-05 Max=5.17D-04 NDo=     1
 LinEq1:  Iter=  4 NonCon=     1 RMS=5.56D-06 Max=1.47D-04 NDo=     1
 LinEq1:  Iter=  5 NonCon=     1 RMS=3.14D-06 Max=1.30D-04 NDo=     1
 LinEq1:  Iter=  6 NonCon=     1 RMS=1.52D-06 Max=7.16D-05 NDo=     1
 LinEq1:  Iter=  7 NonCon=     1 RMS=6.28D-07 Max=2.69D-05 NDo=     1
 LinEq1:  Iter=  8 NonCon=     1 RMS=3.92D-07 Max=1.50D-05 NDo=     1
 LinEq1:  Iter=  9 NonCon=     1 RMS=1.79D-07 Max=1.21D-05 NDo=     1
 LinEq1:  Iter= 10 NonCon=     1 RMS=1.28D-07 Max=7.92D-06 NDo=     1
 LinEq1:  Iter= 11 NonCon=     1 RMS=5.93D-08 Max=2.88D-06 NDo=     1
 LinEq1:  Iter= 12 NonCon=     1 RMS=1.91D-08 Max=6.66D-07 NDo=     1
 LinEq1:  Iter= 13 NonCon=     1 RMS=8.25D-09 Max=2.57D-07 NDo=     1
 LinEq1:  Iter= 14 NonCon=     0 RMS=3.12D-09 Max=1.11D-07 NDo=     1
 Linear equations converged to 1.705D-08 1.705D-07 after    14 iterations.
 Incorrect curvature in search direction -- initial direction reversed.
 Gradient too large for Newton-Raphson -- use scaled steepest descent instead.
     Minimum is close to point  5 DX=  2.13D-01 DF= -6.22D-06 DXR=  8.14D-02 DFR=  6.60D-03 which will be used.
 Gradient too large for Newton-Raphson -- use scaled steepest descent instead.
 Gradient too large for Newton-Raphson -- use scaled steepest descent instead.
     Accept linear search using points  1 and  2.
 Gradient too large for Newton-Raphson -- use scaled steepest descent instead.
     Accept linear search using points  1 and  2.
 LinEq1:  Iter=  0 NonCon=     1 RMS=1.33D-04 Max=1.44D-02 NDo=     1
 LinEq1:  Iter=  1 NonCon=     1 RMS=8.73D-05 Max=3.57D-03 NDo=     1
 LinEq1:  Iter=  2 NonCon=     1 RMS=1.56D-05 Max=2.94D-04 NDo=     1
 LinEq1:  Iter=  3 NonCon=     1 RMS=6.80D-06 Max=3.14D-04 NDo=     1
 LinEq1:  Iter=  4 NonCon=     1 RMS=2.11D-06 Max=8.17D-05 NDo=     1
 LinEq1:  Iter=  5 NonCon=     1 RMS=1.54D-06 Max=9.12D-05 NDo=     1
 LinEq1:  Iter=  6 NonCon=     1 RMS=6.85D-07 Max=4.33D-05 NDo=     1
 LinEq1:  Iter=  7 NonCon=     1 RMS=5.16D-07 Max=2.73D-05 NDo=     1
 LinEq1:  Iter=  8 NonCon=     1 RMS=1.37D-07 Max=7.41D-06 NDo=     1
 LinEq1:  Iter=  9 NonCon=     1 RMS=5.23D-08 Max=1.59D-06 NDo=     1
 LinEq1:  Iter= 10 NonCon=     1 RMS=2.07D-08 Max=9.43D-07 NDo=     1
 LinEq1:  Iter= 11 NonCon=     1 RMS=1.06D-08 Max=4.35D-07 NDo=     1
 LinEq1:  Iter= 12 NonCon=     1 RMS=2.94D-09 Max=1.80D-07 NDo=     1
 LinEq1:  Iter= 13 NonCon=     0 RMS=7.44D-10 Max=2.57D-08 NDo=     1
 Linear equations converged to 1.705D-08 1.705D-07 after    13 iterations.
 Restarting incremental Fock formation.
 LinEq1:  Iter=  0 NonCon=     1 RMS=9.63D-05 Max=6.27D-03 NDo=     1
 LinEq1:  Iter=  1 NonCon=     1 RMS=7.55D-05 Max=3.43D-03 NDo=     1
 LinEq1:  Iter=  2 NonCon=     1 RMS=3.41D-05 Max=2.83D-03 NDo=     1
 LinEq1:  Iter=  3 NonCon=     1 RMS=2.07D-05 Max=1.03D-03 NDo=     1
 LinEq1:  Iter=  4 NonCon=     1 RMS=6.98D-06 Max=3.57D-04 NDo=     1
 LinEq1:  Iter=  5 NonCon=     1 RMS=2.31D-06 Max=7.43D-05 NDo=     1
 LinEq1:  Iter=  6 NonCon=     1 RMS=1.40D-06 Max=5.30D-05 NDo=     1
 LinEq1:  Iter=  7 NonCon=     1 RMS=6.03D-07 Max=3.15D-05 NDo=     1
 LinEq1:  Iter=  8 NonCon=     1 RMS=3.79D-07 Max=2.78D-05 NDo=     1
 LinEq1:  Iter=  9 NonCon=     1 RMS=1.64D-07 Max=8.41D-06 NDo=     1
 LinEq1:  Iter= 10 NonCon=     1 RMS=6.58D-08 Max=2.53D-06 NDo=     1
 LinEq1:  Iter= 11 NonCon=     1 RMS=2.52D-08 Max=1.08D-06 NDo=     1
 LinEq1:  Iter= 12 NonCon=     1 RMS=1.23D-08 Max=6.89D-07 NDo=     1
 LinEq1:  Iter= 13 NonCon=     0 RMS=3.84D-09 Max=1.61D-07 NDo=     1
 Linear equations converged to 1.705D-08 1.705D-07 after    13 iterations.
     Accept linear search using points  1 and  2.
 LinEq1:  Iter=  0 NonCon=     1 RMS=3.58D-05 Max=2.34D-03 NDo=     1
 LinEq1:  Iter=  1 NonCon=     1 RMS=1.61D-05 Max=6.04D-04 NDo=     1
 LinEq1:  Iter=  2 NonCon=     1 RMS=7.83D-06 Max=3.63D-04 NDo=     1
 LinEq1:  Iter=  3 NonCon=     1 RMS=4.16D-06 Max=1.73D-04 NDo=     1
 LinEq1:  Iter=  4 NonCon=     1 RMS=2.53D-06 Max=1.88D-04 NDo=     1
 LinEq1:  Iter=  5 NonCon=     1 RMS=7.68D-07 Max=3.34D-05 NDo=     1
 LinEq1:  Iter=  6 NonCon=     1 RMS=4.95D-07 Max=1.66D-05 NDo=     1
 LinEq1:  Iter=  7 NonCon=     1 RMS=2.25D-07 Max=1.21D-05 NDo=     1
 LinEq1:  Iter=  8 NonCon=     1 RMS=1.33D-07 Max=6.68D-06 NDo=     1
 LinEq1:  Iter=  9 NonCon=     1 RMS=6.87D-08 Max=3.54D-06 NDo=     1
 LinEq1:  Iter= 10 NonCon=     1 RMS=3.34D-08 Max=1.34D-06 NDo=     1
 LinEq1:  Iter= 11 NonCon=     1 RMS=1.13D-08 Max=6.58D-07 NDo=     1
 LinEq1:  Iter= 12 NonCon=     0 RMS=4.73D-09 Max=1.43D-07 NDo=     1
 Linear equations converged to 1.705D-08 1.705D-07 after    12 iterations.
     Minimum is close to point  2 DX=  1.04D-02 DF= -2.78D-09 DXR=  1.03D-02 DFR=  1.06D-04 which will be used.
 LinEq1:  Iter=  0 NonCon=     1 RMS=6.85D-07 Max=3.85D-05 NDo=     1
 LinEq1:  Iter=  1 NonCon=     1 RMS=4.53D-07 Max=2.46D-05 NDo=     1
 LinEq1:  Iter=  2 NonCon=     1 RMS=1.48D-07 Max=8.48D-06 NDo=     1
 LinEq1:  Iter=  3 NonCon=     1 RMS=6.56D-08 Max=2.32D-06 NDo=     1
 LinEq1:  Iter=  4 NonCon=     1 RMS=4.15D-08 Max=1.83D-06 NDo=     1
 LinEq1:  Iter=  5 NonCon=     1 RMS=2.52D-08 Max=1.23D-06 NDo=     1
 LinEq1:  Iter=  6 NonCon=     1 RMS=1.15D-08 Max=5.23D-07 NDo=     1
 LinEq1:  Iter=  7 NonCon=     1 RMS=6.69D-09 Max=3.72D-07 NDo=     1
 LinEq1:  Iter=  8 NonCon=     1 RMS=2.88D-09 Max=1.96D-07 NDo=     1
 LinEq1:  Iter=  9 NonCon=     1 RMS=2.01D-09 Max=7.94D-08 NDo=     1
 LinEq1:  Iter= 10 NonCon=     1 RMS=1.12D-09 Max=5.54D-08 NDo=     1
 LinEq1:  Iter= 11 NonCon=     1 RMS=4.23D-10 Max=1.92D-08 NDo=     1
 LinEq1:  Iter= 12 NonCon=     0 RMS=1.93D-10 Max=7.57D-09 NDo=     1
 Linear equations converged to 9.347D-10 9.347D-09 after    12 iterations.
 LinEq1:  Iter=  0 NonCon=     1 RMS=1.47D-08 Max=5.67D-07 NDo=     1
 LinEq1:  Iter=  1 NonCon=     1 RMS=9.25D-09 Max=5.11D-07 NDo=     1
 LinEq1:  Iter=  2 NonCon=     1 RMS=3.38D-09 Max=1.18D-07 NDo=     1
 LinEq1:  Iter=  3 NonCon=     1 RMS=1.99D-09 Max=8.94D-08 NDo=     1
 LinEq1:  Iter=  4 NonCon=     1 RMS=1.41D-09 Max=9.37D-08 NDo=     1
 LinEq1:  Iter=  5 NonCon=     1 RMS=6.16D-10 Max=3.51D-08 NDo=     1
 LinEq1:  Iter=  6 NonCon=     1 RMS=3.62D-10 Max=1.38D-08 NDo=     1
 LinEq1:  Iter=  7 NonCon=     1 RMS=1.60D-10 Max=9.61D-09 NDo=     1
 LinEq1:  Iter=  8 NonCon=     1 RMS=8.60D-11 Max=4.32D-09 NDo=     1
 LinEq1:  Iter=  9 NonCon=     1 RMS=5.43D-11 Max=2.61D-09 NDo=     1
 LinEq1:  Iter= 10 NonCon=     1 RMS=2.66D-11 Max=1.64D-09 NDo=     1
 LinEq1:  Iter= 11 NonCon=     1 RMS=1.13D-11 Max=6.86D-10 NDo=     1
 LinEq1:  Iter= 12 NonCon=     0 RMS=7.37D-12 Max=2.37D-10 NDo=     1
 Linear equations converged to 2.958D-11 2.958D-10 after    12 iterations.
 Error on total polarization charges =  0.14932
 SCF Done:  E(UwB97XD) =  -524.793254245     a.u. after   12 cycles
            Convg  =    0.5963D-07                   115 Fock formations.
              S**2 =  0.7503                  -V/T =  2.0096
 <Sx>= 0.0000 <Sy>= 0.0000 <Sz>= 0.5000 <S**2>= 0.7503 S= 0.5002
 <L.S>= 0.000000000000E+00
 SMD-CDS (non-electrostatic) energy       (kcal/mol) =      -2.91
 (included in total energy above)
 Annihilation of the first spin contaminant:
 S**2 before annihilation     0.7503,   after     0.7500

 **********************************************************************

            Population analysis using the SCF Density.

 **********************************************************************

 Orbital symmetries:
 Alpha Orbitals:
       Occupied  (A) (A) (A) (A) (A) (A) (A) (A) (A) (A) (A) (A)
                 (A) (A) (A) (A) (A) (A) (A) (A) (A) (A) (A) (A)
                 (A) (A) (A) (A) (A) (A) (A) (A) (A) (A) (A) (A)
                 (A) (A) (A) (A) (A) (A) (A) (A) (A) (A) (A) (A)
                 (A) (A)
       Virtual   (A) (A) (A) (A) (A) (A) (A) (A) (A) (A) (A) (A)
                 (A) (A) (A) (A) (A) (A) (A) (A) (A) (A) (A) (A)
                 (A) (A) (A) (A) (A) (A) (A) (A) (A) (A) (A) (A)
                 (A) (A) (A) (A) (A) (A) (A) (A) (A) (A) (A) (A)
                 (A) (A) (A) (A) (A) (A) (A) (A) (A) (A) (A) (A)
                 (A) (A) (A) (A) (A) (A) (A) (A) (A) (A) (A) (A)
                 (A) (A) (A) (A) (A) (A) (A) (A) (A) (A) (A) (A)
                 (A) (A) (A) (A) (A) (A) (A) (A) (A) (A) (A) (A)
                 (A) (A) (A) (A) (A) (A) (A) (A) (A) (A) (A) (A)
                 (A) (A) (A) (A) (A) (A) (A) (A) (A) (A) (A) (A)
                 (A) (A) (A) (A) (A) (A) (A) (A) (A) (A) (A) (A)
                 (A) (A) (A) (A) (A) (A) (A) (A) (A) (A) (A) (A)
                 (A) (A) (A) (A) (A) (A) (A) (A) (A) (A) (A) (A)
                 (A) (A) (A) (A) (A) (A) (A) (A) (A) (A) (A) (A)
                 (A) (A) (A) (A) (A) (A) (A) (A) (A) (A) (A) (A)
                 (A) (A) (A) (A) (A) (A) (A) (A) (A) (A) (A) (A)
                 (A) (A) (A) (A) (A) (A) (A) (A) (A) (A) (A) (A)
                 (A) (A) (A) (A) (A) (A) (A) (A) (A) (A) (A) (A)
                 (A) (A) (A) (A) (A) (A) (A) (A) (A) (A) (A) (A)
                 (A) (A) (A) (A) (A) (A) (A) (A) (A) (A) (A) (A)
                 (A) (A) (A) (A) (A) (A) (A) (A) (A) (A) (A) (A)
                 (A) (A) (A) (A) (A) (A) (A) (A) (A) (A) (A) (A)
                 (A) (A) (A) (A) (A) (A) (A) (A) (A) (A) (A) (A)
                 (A) (A) (A) (A) (A) (A) (A) (A) (A) (A) (A) (A)
                 (A) (A) (A) (A) (A)
 Beta  Orbitals:
       Occupied  (A) (A) (A) (A) (A) (A) (A) (A) (A) (A) (A) (A)
                 (A) (A) (A) (A) (A) (A) (A) (A) (A) (A) (A) (A)
                 (A) (A) (A) (A) (A) (A) (A) (A) (A) (A) (A) (A)
                 (A) (A) (A) (A) (A) (A) (A) (A) (A) (A) (A) (A)
                 (A)
       Virtual   (A) (A) (A) (A) (A) (A) (A) (A) (A) (A) (A) (A)
                 (A) (A) (A) (A) (A) (A) (A) (A) (A) (A) (A) (A)
                 (A) (A) (A) (A) (A) (A) (A) (A) (A) (A) (A) (A)
                 (A) (A) (A) (A) (A) (A) (A) (A) (A) (A) (A) (A)
                 (A) (A) (A) (A) (A) (A) (A) (A) (A) (A) (A) (A)
                 (A) (A) (A) (A) (A) (A) (A) (A) (A) (A) (A) (A)
                 (A) (A) (A) (A) (A) (A) (A) (A) (A) (A) (A) (A)
                 (A) (A) (A) (A) (A) (A) (A) (A) (A) (A) (A) (A)
                 (A) (A) (A) (A) (A) (A) (A) (A) (A) (A) (A) (A)
                 (A) (A) (A) (A) (A) (A) (A) (A) (A) (A) (A) (A)
                 (A) (A) (A) (A) (A) (A) (A) (A) (A) (A) (A) (A)
                 (A) (A) (A) (A) (A) (A) (A) (A) (A) (A) (A) (A)
                 (A) (A) (A) (A) (A) (A) (A) (A) (A) (A) (A) (A)
                 (A) (A) (A) (A) (A) (A) (A) (A) (A) (A) (A) (A)
                 (A) (A) (A) (A) (A) (A) (A) (A) (A) (A) (A) (A)
                 (A) (A) (A) (A) (A) (A) (A) (A) (A) (A) (A) (A)
                 (A) (A) (A) (A) (A) (A) (A) (A) (A) (A) (A) (A)
                 (A) (A) (A) (A) (A) (A) (A) (A) (A) (A) (A) (A)
                 (A) (A) (A) (A) (A) (A) (A) (A) (A) (A) (A) (A)
                 (A) (A) (A) (A) (A) (A) (A) (A) (A) (A) (A) (A)
                 (A) (A) (A) (A) (A) (A) (A) (A) (A) (A) (A) (A)
                 (A) (A) (A) (A) (A) (A) (A) (A) (A) (A) (A) (A)
                 (A) (A) (A) (A) (A) (A) (A) (A) (A) (A) (A) (A)
                 (A) (A) (A) (A) (A) (A) (A) (A) (A) (A) (A) (A)
                 (A) (A) (A) (A) (A) (A)
 The electronic state is 2-A.
 Alpha  occ. eigenvalues --  -19.24777 -14.43392 -10.32018 -10.30336 -10.30301
 Alpha  occ. eigenvalues --  -10.29895 -10.28169 -10.28130 -10.27662 -10.27503
 Alpha  occ. eigenvalues --  -10.27485 -10.27436  -1.10008  -1.00970  -0.88472
 Alpha  occ. eigenvalues --   -0.87884  -0.82560  -0.81051  -0.77470  -0.73219
 Alpha  occ. eigenvalues --   -0.70901  -0.66963  -0.66047  -0.63095  -0.57931
 Alpha  occ. eigenvalues --   -0.56495  -0.54652  -0.53859  -0.53078  -0.52166
 Alpha  occ. eigenvalues --   -0.50402  -0.49706  -0.48831  -0.47473  -0.46692
 Alpha  occ. eigenvalues --   -0.45839  -0.45267  -0.43568  -0.42203  -0.41613
 Alpha  occ. eigenvalues --   -0.41124  -0.40474  -0.39877  -0.39496  -0.39004
 Alpha  occ. eigenvalues --   -0.38582  -0.38201  -0.33697  -0.28248  -0.08190
 Alpha virt. eigenvalues --    0.07798   0.08199   0.08545   0.09316   0.09534
 Alpha virt. eigenvalues --    0.10520   0.10656   0.10873   0.11724   0.12792
 Alpha virt. eigenvalues --    0.13172   0.13426   0.14233   0.14476   0.14682
 Alpha virt. eigenvalues --    0.15225   0.15860   0.16552   0.17284   0.17421
 Alpha virt. eigenvalues --    0.18161   0.18326   0.18957   0.19369   0.19659
 Alpha virt. eigenvalues --    0.19864   0.21400   0.21985   0.22089   0.23259
 Alpha virt. eigenvalues --    0.23773   0.24149   0.24667   0.25230   0.25533
 Alpha virt. eigenvalues --    0.26353   0.26704   0.26952   0.27890   0.28151
 Alpha virt. eigenvalues --    0.28494   0.29600   0.29677   0.30152   0.30667
 Alpha virt. eigenvalues --    0.31049   0.31166   0.32421   0.32912   0.33678
 Alpha virt. eigenvalues --    0.34176   0.34967   0.35171   0.35659   0.35794
 Alpha virt. eigenvalues --    0.36252   0.36945   0.37309   0.37642   0.37752
 Alpha virt. eigenvalues --    0.38142   0.38714   0.38788   0.39930   0.41193
 Alpha virt. eigenvalues --    0.41388   0.42109   0.43440   0.43624   0.44501
 Alpha virt. eigenvalues --    0.44617   0.46267   0.46413   0.46650   0.47695
 Alpha virt. eigenvalues --    0.48672   0.50067   0.51234   0.52693   0.54765
 Alpha virt. eigenvalues --    0.58996   0.71517   0.72459   0.72976   0.74278
 Alpha virt. eigenvalues --    0.74918   0.75805   0.76605   0.77605   0.77776
 Alpha virt. eigenvalues --    0.78704   0.79884   0.80812   0.81571   0.82109
 Alpha virt. eigenvalues --    0.83511   0.84193   0.85276   0.86071   0.86720
 Alpha virt. eigenvalues --    0.88733   0.91357   0.92153   0.95434   0.96490
 Alpha virt. eigenvalues --    0.98239   0.99249   1.00485   1.02306   1.03118
 Alpha virt. eigenvalues --    1.04298   1.05015   1.05463   1.07125   1.08495
 Alpha virt. eigenvalues --    1.09383   1.10929   1.11338   1.12101   1.13327
 Alpha virt. eigenvalues --    1.14221   1.15868   1.16869   1.18344   1.19458
 Alpha virt. eigenvalues --    1.20570   1.21670   1.22272   1.23383   1.23868
 Alpha virt. eigenvalues --    1.24101   1.25167   1.25330   1.26065   1.26938
 Alpha virt. eigenvalues --    1.28473   1.29098   1.32225   1.34787   1.35362
 Alpha virt. eigenvalues --    1.37054   1.41986   1.43034   1.46840   1.47367
 Alpha virt. eigenvalues --    1.48794   1.50533   1.51289   1.52439   1.55341
 Alpha virt. eigenvalues --    1.58687   1.59030   1.62950   1.64690   1.66393
 Alpha virt. eigenvalues --    1.69633   1.71750   1.72184   1.75000   1.77169
 Alpha virt. eigenvalues --    1.77972   1.78972   1.80025   1.83552   1.85951
 Alpha virt. eigenvalues --    1.88352   1.91461   1.96008   1.96918   1.98031
 Alpha virt. eigenvalues --    1.98682   1.99608   2.01832   2.02408   2.02944
 Alpha virt. eigenvalues --    2.04746   2.06102   2.06308   2.08439   2.09752
 Alpha virt. eigenvalues --    2.12200   2.13246   2.14680   2.15274   2.15900
 Alpha virt. eigenvalues --    2.16089   2.19159   2.20850   2.22096   2.22616
 Alpha virt. eigenvalues --    2.22773   2.24216   2.24317   2.25052   2.26054
 Alpha virt. eigenvalues --    2.26590   2.28809   2.29689   2.29872   2.33476
 Alpha virt. eigenvalues --    2.35456   2.36907   2.37374   2.37783   2.39697
 Alpha virt. eigenvalues --    2.40002   2.41288   2.42534   2.43997   2.44508
 Alpha virt. eigenvalues --    2.45682   2.47341   2.50798   2.51368   2.54655
 Alpha virt. eigenvalues --    2.55129   2.56561   2.58973   2.61290   2.62940
 Alpha virt. eigenvalues --    2.63613   2.65574   2.67590   2.71079   2.72298
 Alpha virt. eigenvalues --    2.73153   2.76805   2.78250   2.78734   2.79683
 Alpha virt. eigenvalues --    2.80933   2.83490   2.84684   2.85250   2.87450
 Alpha virt. eigenvalues --    2.88406   2.89217   2.90673   2.91605   2.92328
 Alpha virt. eigenvalues --    2.93785   2.95513   2.96621   2.97351   2.98087
 Alpha virt. eigenvalues --    3.00256   3.00965   3.02511   3.02664   3.02888
 Alpha virt. eigenvalues --    3.03541   3.04337   3.06693   3.08337   3.10287
 Alpha virt. eigenvalues --    3.13006   3.15140   3.20795   3.35395   3.36554
 Alpha virt. eigenvalues --    3.43107   3.43694   3.44236   3.44623   3.46423
 Alpha virt. eigenvalues --    3.47026   3.47745   3.49669   3.53248   3.55398
 Alpha virt. eigenvalues --    3.57620   3.57885   3.60736   3.60980   3.62226
 Alpha virt. eigenvalues --    3.65259   3.66114   3.68360   3.70748   3.73431
 Alpha virt. eigenvalues --    3.75948   4.38741   4.44224   4.47317   4.50813
 Alpha virt. eigenvalues --    4.61261   4.62740   4.64140   4.72376   4.75931
 Alpha virt. eigenvalues --    4.82933   4.86215   4.89471
  Beta  occ. eigenvalues --  -19.24630 -14.43329 -10.32000 -10.30332 -10.30299
  Beta  occ. eigenvalues --  -10.29850 -10.28167 -10.28127 -10.27620 -10.27504
  Beta  occ. eigenvalues --  -10.27485 -10.27436  -1.09729  -1.00867  -0.88441
  Beta  occ. eigenvalues --   -0.87857  -0.82493  -0.81019  -0.77405  -0.73179
  Beta  occ. eigenvalues --   -0.70810  -0.66931  -0.66004  -0.63007  -0.57817
  Beta  occ. eigenvalues --   -0.56441  -0.54607  -0.53812  -0.52957  -0.52126
  Beta  occ. eigenvalues --   -0.50360  -0.49677  -0.48790  -0.47432  -0.46657
  Beta  occ. eigenvalues --   -0.45801  -0.45212  -0.43525  -0.42170  -0.41581
  Beta  occ. eigenvalues --   -0.41104  -0.40437  -0.39812  -0.39444  -0.38987
  Beta  occ. eigenvalues --   -0.38556  -0.38159  -0.33569  -0.27994
  Beta virt. eigenvalues --    0.08268   0.08622   0.09218   0.09344   0.10534
  Beta virt. eigenvalues --    0.10862   0.11158   0.11439   0.11939   0.13597
  Beta virt. eigenvalues --    0.13662   0.14146   0.14301   0.14999   0.15352
  Beta virt. eigenvalues --    0.15568   0.16152   0.16761   0.17258   0.17957
  Beta virt. eigenvalues --    0.18053   0.18854   0.19142   0.19678   0.20232
  Beta virt. eigenvalues --    0.20745   0.21055   0.22859   0.22935   0.23997
  Beta virt. eigenvalues --    0.24232   0.24631   0.25339   0.25773   0.26047
  Beta virt. eigenvalues --    0.26318   0.26947   0.27522   0.28165   0.28772
  Beta virt. eigenvalues --    0.28915   0.29812   0.30089   0.30740   0.31176
  Beta virt. eigenvalues --    0.31371   0.31953   0.32250   0.32872   0.33631
  Beta virt. eigenvalues --    0.34629   0.34877   0.35316   0.35846   0.36206
  Beta virt. eigenvalues --    0.36368   0.36548   0.37434   0.37863   0.37996
  Beta virt. eigenvalues --    0.38342   0.38873   0.39706   0.39864   0.40856
  Beta virt. eigenvalues --    0.41720   0.41928   0.42939   0.43791   0.43996
  Beta virt. eigenvalues --    0.44926   0.45319   0.46568   0.46869   0.47216
  Beta virt. eigenvalues --    0.48320   0.49499   0.50635   0.51830   0.52849
  Beta virt. eigenvalues --    0.55155   0.59017   0.71740   0.72706   0.73156
  Beta virt. eigenvalues --    0.74387   0.75066   0.75927   0.76734   0.77783
  Beta virt. eigenvalues --    0.78059   0.78824   0.80008   0.80915   0.81668
  Beta virt. eigenvalues --    0.82206   0.83715   0.84305   0.85521   0.86133
  Beta virt. eigenvalues --    0.86817   0.88820   0.91473   0.92209   0.95568
  Beta virt. eigenvalues --    0.96469   0.98275   0.99362   1.00636   1.02593
  Beta virt. eigenvalues --    1.03189   1.04378   1.05143   1.05698   1.07285
  Beta virt. eigenvalues --    1.08595   1.09475   1.11051   1.11360   1.12313
  Beta virt. eigenvalues --    1.13417   1.14325   1.16051   1.17013   1.18575
  Beta virt. eigenvalues --    1.19607   1.20658   1.21769   1.22403   1.23611
  Beta virt. eigenvalues --    1.24059   1.24198   1.25287   1.25481   1.26252
  Beta virt. eigenvalues --    1.27046   1.28640   1.29296   1.32309   1.34846
  Beta virt. eigenvalues --    1.35453   1.37225   1.42088   1.43096   1.46891
  Beta virt. eigenvalues --    1.47448   1.48877   1.50624   1.51345   1.52490
  Beta virt. eigenvalues --    1.55384   1.58763   1.59080   1.62995   1.64739
  Beta virt. eigenvalues --    1.66428   1.69685   1.71801   1.72223   1.75024
  Beta virt. eigenvalues --    1.77161   1.78074   1.78988   1.80044   1.83575
  Beta virt. eigenvalues --    1.85987   1.88379   1.91496   1.96036   1.96943
  Beta virt. eigenvalues --    1.98060   1.98718   1.99660   2.01868   2.02467
  Beta virt. eigenvalues --    2.03025   2.04792   2.06154   2.06348   2.08499
  Beta virt. eigenvalues --    2.09806   2.12250   2.13287   2.14763   2.15277
  Beta virt. eigenvalues --    2.15928   2.16179   2.19199   2.20854   2.22110
  Beta virt. eigenvalues --    2.22633   2.22796   2.24236   2.24331   2.25062
  Beta virt. eigenvalues --    2.26074   2.26603   2.28836   2.29716   2.29935
  Beta virt. eigenvalues --    2.33492   2.35478   2.36919   2.37396   2.37781
  Beta virt. eigenvalues --    2.39705   2.40010   2.41303   2.42549   2.44019
  Beta virt. eigenvalues --    2.44532   2.45718   2.47380   2.50829   2.51382
  Beta virt. eigenvalues --    2.54677   2.55147   2.56581   2.59019   2.61367
  Beta virt. eigenvalues --    2.62967   2.63648   2.65595   2.67622   2.71106
  Beta virt. eigenvalues --    2.72321   2.73166   2.76828   2.78284   2.78757
  Beta virt. eigenvalues --    2.79702   2.80957   2.83513   2.84693   2.85268
  Beta virt. eigenvalues --    2.87478   2.88425   2.89235   2.90685   2.91638
  Beta virt. eigenvalues --    2.92351   2.93798   2.95523   2.96628   2.97370
  Beta virt. eigenvalues --    2.98096   3.00268   3.00976   3.02519   3.02675
  Beta virt. eigenvalues --    3.02907   3.03553   3.04385   3.06711   3.08369
  Beta virt. eigenvalues --    3.10342   3.13060   3.15171   3.20851   3.35400
  Beta virt. eigenvalues --    3.36561   3.43140   3.43709   3.44253   3.44653
  Beta virt. eigenvalues --    3.46465   3.47050   3.47777   3.49690   3.53281
  Beta virt. eigenvalues --    3.55451   3.57688   3.57903   3.60749   3.60997
  Beta virt. eigenvalues --    3.62250   3.65286   3.66135   3.68386   3.70771
  Beta virt. eigenvalues --    3.73465   3.76127   4.38848   4.44289   4.47352
  Beta virt. eigenvalues --    4.50875   4.61320   4.62776   4.64182   4.72417
  Beta virt. eigenvalues --    4.75941   4.82978   4.86268   4.89516
          Condensed to atoms (all electrons):
               1          2          3          4          5          6
     1  C    9.740773  -2.068918  -0.629348  -8.148134   8.816693  -0.770933
     2  C   -2.068918   7.043422   0.271210   6.039781  -6.707278   0.724534
     3  N   -0.629348   0.271210   7.832595  -0.826443   0.871793  -0.529543
     4  C   -8.148134   6.039781  -0.826443 216.011289-224.699097  61.108767
     5  C    8.816693  -6.707278   0.871793-224.699097 248.607499 -71.491120
     6  C   -0.770933   0.724534  -0.529543  61.108767 -71.491120  47.549552
     7  C    0.383693  -0.389466   0.280599 -37.723617  44.963495 -30.021086
     8  C    0.568181  -0.382592  -0.025346  -9.375250   9.153768  -1.434082
     9  C   -0.988121   0.408543   0.235213  10.324487  -9.787787   1.180937
    10  C    0.691603  -0.322589  -0.202930  -7.281499   7.048472  -0.891195
    11  C    0.152790  -0.067290  -0.008890  -2.234353   2.144954  -0.323291
    12  O   -1.888890   0.715669   0.267337   1.204521  -1.498530   0.056372
    13  H    0.374977  -0.039563  -0.001515   0.031361  -0.034922   0.000843
    14  H    0.421382  -0.077085   0.008849   0.024597  -0.025584   0.001040
    15  H    0.010738   0.383966  -0.058323  -0.136059   0.146589  -0.015363
    16  H   -0.030166   0.370081  -0.058300   0.071195  -0.075950   0.008116
    17  H    0.033547  -0.028094  -0.059692  -0.671123   1.022641  -0.147625
    18  H    0.038739  -0.063875  -0.068005  -0.316721   0.734254  -0.099779
    19  H   -0.015428   0.011538  -0.016482   0.709946  -0.469827   0.262183
    20  H   -0.013817   0.011516  -0.017455   1.080281  -0.843161   0.373383
    21  H    0.000517  -0.003067  -0.002312  -0.171736   0.129770   0.300182
    22  H   -0.000426  -0.000041  -0.001210   0.039038  -0.122655   0.437079
    23  H   -0.000014  -0.000144   0.000052   0.001164   0.013331  -0.059131
    24  H   -0.000184  -0.000739  -0.000710   0.052788  -0.070714   0.008149
    25  H   -0.000080   0.000291  -0.000523   0.065614  -0.088357   0.024390
    26  H   -0.025912   0.003229  -0.080753   0.229784  -0.209539   0.025620
    27  H    0.012777  -0.017703  -0.072170   0.002829   0.002598  -0.001024
    28  H   -0.013592   0.010852   0.023129   0.097057  -0.105697   0.006360
    29  H    0.010095  -0.009065  -0.010164  -0.442428   0.412644  -0.060025
    30  H    0.000881   0.001043  -0.003868  -0.011092   0.006377  -0.000251
    31  H    0.000058   0.000502  -0.000785  -0.005191   0.004473  -0.000423
    32  H   -0.000104   0.000532  -0.000553   0.006143  -0.007649   0.001471
    33  H   -0.001123   0.000177  -0.000396   0.017820  -0.014421   0.001288
    34  H   -0.000015  -0.000069   0.000081  -0.000683   0.000909  -0.000038
    35  H    0.291858  -0.181457  -0.024285  -0.187202   0.269442  -0.005851
               7          8          9         10         11         12
     1  C    0.383693   0.568181  -0.988121   0.691603   0.152790  -1.888890
     2  C   -0.389466  -0.382592   0.408543  -0.322589  -0.067290   0.715669
     3  N    0.280599  -0.025346   0.235213  -0.202930  -0.008890   0.267337
     4  C  -37.723617  -9.375250  10.324487  -7.281499  -2.234353   1.204521
     5  C   44.963495   9.153768  -9.787787   7.048472   2.144954  -1.498530
     6  C  -30.021086  -1.434082   1.180937  -0.891195  -0.323291   0.056372
     7  C   27.438193   0.792264  -0.612070   0.477599   0.178741  -0.023595
     8  C    0.792264   7.515713  -3.661117   1.936834   0.781910  -0.086957
     9  C   -0.612070  -3.661117  15.968798  -5.306393  -2.569217   0.149339
    10  C    0.477599   1.936834  -5.306393   8.525371   1.418698  -0.125843
    11  C    0.178741   0.781910  -2.569217   1.418698   5.948749  -0.018110
    12  O   -0.023595  -0.086957   0.149339  -0.125843  -0.018110   9.614633
    13  H   -0.000319  -0.018508   0.018284  -0.004603  -0.002272  -0.031543
    14  H   -0.000262   0.010516  -0.000797  -0.000918  -0.000119  -0.029438
    15  H    0.007071   0.001685  -0.001781   0.001197   0.000181  -0.008565
    16  H   -0.002849  -0.003808   0.010803  -0.001167  -0.001550   0.008094
    17  H    0.084592   0.065036  -0.037095   0.042443   0.006264  -0.001871
    18  H    0.061315   0.021855   0.001004   0.005561   0.001380  -0.004336
    19  H   -0.166591   0.000155   0.004893  -0.004221  -0.001505   0.000606
    20  H   -0.233885  -0.058580   0.050680  -0.039083  -0.007937   0.000397
    21  H    0.061187   0.005924  -0.000520   0.002142   0.000322  -0.000007
    22  H   -0.022612  -0.005171   0.000457  -0.000393   0.000047   0.000010
    23  H    0.410170  -0.000133   0.000047  -0.000002  -0.000010   0.000000
    24  H    0.368977   0.000368  -0.000042  -0.000061  -0.000043   0.000000
    25  H    0.358290  -0.002977   0.001346  -0.000632  -0.000148   0.000000
    26  H   -0.009694   0.374363   0.013273  -0.014938  -0.016567   0.000133
    27  H    0.000113   0.459984  -0.070236   0.009367   0.001182  -0.000314
    28  H   -0.002707  -0.106509   0.469985  -0.045078  -0.002415   0.000488
    29  H    0.029511   0.067646   0.208521   0.070814   0.030743  -0.000266
    30  H    0.000087   0.034841  -0.113693   0.422118  -0.019344  -0.000045
    31  H    0.000131   0.036345  -0.101140   0.408113  -0.012995  -0.000003
    32  H   -0.000795   0.002972   0.014667  -0.074917   0.414599   0.000001
    33  H   -0.000635   0.004671   0.018847  -0.074489   0.408827   0.000017
    34  H    0.000038  -0.004370   0.026916  -0.059612   0.402874  -0.000000
    35  H    0.003045   0.040974  -0.035671   0.029278   0.003180   0.071902
              13         14         15         16         17         18
     1  C    0.374977   0.421382   0.010738  -0.030166   0.033547   0.038739
     2  C   -0.039563  -0.077085   0.383966   0.370081  -0.028094  -0.063875
     3  N   -0.001515   0.008849  -0.058323  -0.058300  -0.059692  -0.068005
     4  C    0.031361   0.024597  -0.136059   0.071195  -0.671123  -0.316721
     5  C   -0.034922  -0.025584   0.146589  -0.075950   1.022641   0.734254
     6  C    0.000843   0.001040  -0.015363   0.008116  -0.147625  -0.099779
     7  C   -0.000319  -0.000262   0.007071  -0.002849   0.084592   0.061315
     8  C   -0.018508   0.010516   0.001685  -0.003808   0.065036   0.021855
     9  C    0.018284  -0.000797  -0.001781   0.010803  -0.037095   0.001004
    10  C   -0.004603  -0.000918   0.001197  -0.001167   0.042443   0.005561
    11  C   -0.002272  -0.000119   0.000181  -0.001550   0.006264   0.001380
    12  O   -0.031543  -0.029438  -0.008565   0.008094  -0.001871  -0.004336
    13  H    0.615611  -0.041870   0.003983  -0.002301   0.000004  -0.000027
    14  H   -0.041870   0.558007  -0.006734   0.001088   0.000000  -0.000036
    15  H    0.003983  -0.006734   0.538116  -0.034112   0.000630   0.004233
    16  H   -0.002301   0.001088  -0.034112   0.588059  -0.000372  -0.000526
    17  H    0.000004   0.000000   0.000630  -0.000372   0.573818  -0.022571
    18  H   -0.000027  -0.000036   0.004233  -0.000526  -0.022571   0.568871
    19  H    0.000009   0.000008  -0.000356  -0.001038   0.003489  -0.007068
    20  H    0.000005   0.000000  -0.000001   0.000392  -0.008669   0.003666
    21  H   -0.000000  -0.000000  -0.000000  -0.000002   0.003858  -0.000204
    22  H    0.000000   0.000000  -0.000001   0.000004  -0.000669   0.002531
    23  H    0.000000  -0.000000   0.000000  -0.000000   0.000003   0.000003
    24  H    0.000000   0.000000  -0.000000   0.000002  -0.000007  -0.000008
    25  H    0.000000   0.000000  -0.000000   0.000000  -0.000019  -0.000007
    26  H    0.000295  -0.000006  -0.000170   0.009502  -0.001034  -0.000379
    27  H    0.002061  -0.000081   0.000119  -0.002625   0.000205  -0.000051
    28  H    0.000029  -0.000000  -0.000003   0.000008  -0.001457  -0.000111
    29  H   -0.000005   0.000000   0.000009  -0.000016   0.000143   0.000368
    30  H   -0.000011   0.000000   0.000000   0.000001  -0.000004   0.000000
    31  H   -0.000000   0.000000  -0.000000  -0.000000   0.000013  -0.000000
    32  H    0.000000   0.000000   0.000000   0.000000  -0.000003  -0.000000
    33  H    0.000001   0.000000  -0.000000  -0.000003  -0.000001  -0.000000
    34  H    0.000000  -0.000000   0.000000   0.000000  -0.000000  -0.000000
    35  H   -0.004936   0.005094  -0.000602   0.000655   0.000747   0.000594
              19         20         21         22         23         24
     1  C   -0.015428  -0.013817   0.000517  -0.000426  -0.000014  -0.000184
     2  C    0.011538   0.011516  -0.003067  -0.000041  -0.000144  -0.000739
     3  N   -0.016482  -0.017455  -0.002312  -0.001210   0.000052  -0.000710
     4  C    0.709946   1.080281  -0.171736   0.039038   0.001164   0.052788
     5  C   -0.469827  -0.843161   0.129770  -0.122655   0.013331  -0.070714
     6  C    0.262183   0.373383   0.300182   0.437079  -0.059131   0.008149
     7  C   -0.166591  -0.233885   0.061187  -0.022612   0.410170   0.368977
     8  C    0.000155  -0.058580   0.005924  -0.005171  -0.000133   0.000368
     9  C    0.004893   0.050680  -0.000520   0.000457   0.000047  -0.000042
    10  C   -0.004221  -0.039083   0.002142  -0.000393  -0.000002  -0.000061
    11  C   -0.001505  -0.007937   0.000322   0.000047  -0.000010  -0.000043
    12  O    0.000606   0.000397  -0.000007   0.000010   0.000000   0.000000
    13  H    0.000009   0.000005  -0.000000   0.000000   0.000000   0.000000
    14  H    0.000008   0.000000  -0.000000   0.000000  -0.000000   0.000000
    15  H   -0.000356  -0.000001  -0.000000  -0.000001   0.000000  -0.000000
    16  H   -0.001038   0.000392  -0.000002   0.000004  -0.000000   0.000002
    17  H    0.003489  -0.008669   0.003858  -0.000669   0.000003  -0.000007
    18  H   -0.007068   0.003666  -0.000204   0.002531   0.000003  -0.000008
    19  H    0.565730  -0.030450   0.004411  -0.005351  -0.000006   0.003017
    20  H   -0.030450   0.582113  -0.006504   0.004729  -0.000006  -0.000243
    21  H    0.004411  -0.006504   0.559319  -0.033946  -0.003101   0.004211
    22  H   -0.005351   0.004729  -0.033946   0.557086  -0.003142  -0.004636
    23  H   -0.000006  -0.000006  -0.003101  -0.003142   0.530858  -0.026658
    24  H    0.003017  -0.000243   0.004211  -0.004636  -0.026658   0.534004
    25  H   -0.000254   0.003403  -0.004902   0.004286  -0.026628  -0.029346
    26  H    0.000490  -0.000250  -0.000000  -0.000004  -0.000000   0.000001
    27  H   -0.000012   0.000092  -0.000000   0.000000   0.000000  -0.000000
    28  H    0.000000   0.000088  -0.000002  -0.000000  -0.000000   0.000000
    29  H   -0.000089  -0.000806   0.000137  -0.000000  -0.000000  -0.000000
    30  H   -0.000000  -0.000001   0.000000  -0.000000  -0.000000  -0.000000
    31  H   -0.000000  -0.000002   0.000000   0.000000   0.000000  -0.000000
    32  H    0.000001   0.000064   0.000000  -0.000000   0.000000   0.000000
    33  H    0.000002   0.000018   0.000000  -0.000000   0.000000   0.000000
    34  H   -0.000000  -0.000001  -0.000000   0.000000  -0.000000  -0.000000
    35  H   -0.000025  -0.000024   0.000000  -0.000000  -0.000000  -0.000000
              25         26         27         28         29         30
     1  C   -0.000080  -0.025912   0.012777  -0.013592   0.010095   0.000881
     2  C    0.000291   0.003229  -0.017703   0.010852  -0.009065   0.001043
     3  N   -0.000523  -0.080753  -0.072170   0.023129  -0.010164  -0.003868
     4  C    0.065614   0.229784   0.002829   0.097057  -0.442428  -0.011092
     5  C   -0.088357  -0.209539   0.002598  -0.105697   0.412644   0.006377
     6  C    0.024390   0.025620  -0.001024   0.006360  -0.060025  -0.000251
     7  C    0.358290  -0.009694   0.000113  -0.002707   0.029511   0.000087
     8  C   -0.002977   0.374363   0.459984  -0.106509   0.067646   0.034841
     9  C    0.001346   0.013273  -0.070236   0.469985   0.208521  -0.113693
    10  C   -0.000632  -0.014938   0.009367  -0.045078   0.070814   0.422118
[...]
 000121,0.00001130,0.00000319,-0.00000386,-0.00000554,-0.00088953,0.000
 42690,-0.00005447,0.00829455,0.00118841,-0.00196972,0.03896911,0.00907
 759,-0.05472729,-0.02804426,-0.00603768,0.00298783,-0.00000038,-0.0000
 1285,-0.00000597,0.00000077,0.00000232,0.00000053,-0.00000631,-0.00000
 416,-0.00000015,0.00000273,-0.00002221,0.00000159,-0.00000446,0.000004
 13,0.00000073,0.00001258,-0.00002030,0.00004750,0.00000810,-0.00001648
 ,0.00002226,0.00000484,-0.00000332,0.00000472,-0.00000727,-0.00001160,
 -0.00000598,-0.00000110,0.00000130,0.,0.00000182,-0.00000254,-0.000001
 37,0.00000269,0.00000089,0.00000118,0.00000045,-0.00000030,0.00000110,
 -0.00000018,0.00000125,0.00000005,0.00000167,0.00000005,0.00004127,-0.
 00014447,-0.00004394,0.00015457,0.00001432,0.00029053,0.00000985,0.000
 70531,-0.00193528,0.00045035,-0.04116196,-0.00497527,0.05848872,-0.000
 04179,-0.00000017,-0.00003791,-0.00024405,0.00016664,0.00021577,0.0003
 8317,0.00082741,-0.00086749,0.00023370,-0.00008254,-0.00010784,-0.0000
 3039,-0.00000632,0.00003577,-0.00000229,0.00000115,-0.00002525,-0.0000
 0683,0.00000088,0.00000947,-0.00102958,0.00162971,0.00230458,0.0000999
 1,0.01180606,-0.01317041,-0.05134819,-0.01232187,0.01478022,0.00082382
 ,0.00811009,-0.01126075,0.00001001,0.00000933,0.00003909,0.00000550,-0
 .00000618,0.00000530,0.00002321,0.00001726,0.00000246,0.00001934,0.000
 11824,-0.00006251,0.00000606,-0.00001549,-0.00002237,-0.00000686,-0.00
 003997,0.00002299,-0.00002618,0.00002393,0.00001661,-0.00000221,0.0000
 0282,-0.00000339,0.00001350,0.00000659,0.00000041,-0.00000058,-0.00000
 129,0.00000449,-0.00000242,0.00000148,0.00000261,-0.00000516,-0.000000
 83,-0.00000212,0.00000037,-0.00000045,0.00000003,-0.00000061,-0.000000
 96,-0.00000202,0.00003078,-0.00017606,0.00001456,0.00032297,0.00007722
 ,-0.00019459,0.00043617,-0.00074773,0.00014620,0.00045834,-0.00054719,
 -0.00047789,-0.00125405,-0.01951692,0.02416610,0.05049536,0.00006195,0
 .00000083,0.00008678,0.00052474,-0.00026076,-0.00046016,-0.00014109,-0
 .00167350,0.00163961,-0.00040438,-0.00007908,0.00025546,0.00006258,0.0
 0001624,-0.00010915,0.00000817,0.00000973,0.00006628,0.00001703,-0.000
 00803,-0.00002224,0.00326658,-0.00288905,-0.00431048,-0.00285978,-0.01
 916524,0.02237353,-0.01106068,-0.14946836,0.12818191,0.00102395,0.0091
 5620,-0.01420865,-0.00003371,-0.00002243,-0.00007461,-0.00000045,0.000
 00841,-0.00000986,-0.00004588,-0.00004247,-0.00000005,-0.00003294,-0.0
 0025240,0.00014160,-0.00001954,0.00003159,0.00006446,0.00000311,0.0000
 7633,-0.00000677,0.00010700,-0.00005611,-0.00002341,0.00000470,-0.0000
 0923,0.00001154,-0.00002110,-0.00001460,-0.00000194,0.00000171,0.00000
 523,-0.00000878,0.00000641,-0.00000698,-0.00000680,0.00001552,0.000002
 71,0.00000550,-0.00000040,-0.00000028,0.00000195,-0.00000071,0.0000026
 0,0.00000269,0.00017160,0.00002623,0.00040486,0.00001751,0.00020033,-0
 .00040037,-0.00075609,0.00076034,-0.00003664,0.00015130,0.00112077,-0.
 00001728,-0.00033973,-0.00380390,0.00392371,0.01101873,0.16539275,0.00
 001397,-0.00000196,0.00000986,0.00001145,-0.00008722,-0.00002321,-0.00
 002907,-0.00026762,0.00020997,-0.00002674,0.00008714,0.00001510,0.0000
 0500,-0.00002064,0.00001204,0.00000358,-0.00000228,-0.00000531,-0.0000
 0151,0.00000238,-0.00000012,0.00086750,-0.00133303,0.00044926,-0.00010
 946,-0.00704033,0.00649691,0.01380867,0.12846729,-0.20508360,0.0023552
 0,0.01568925,-0.02245230,0.00002186,0.00002392,-0.00003767,-0.00000407
 ,0.00000116,-0.00000815,-0.00000427,-0.00000081,-0.00000333,0.00000192
 ,-0.00002867,0.00000102,0.00000250,0.00000137,-0.00000665,-0.00000041,
 0.00000697,-0.00002492,-0.00000274,-0.00000445,-0.00001223,-0.00000075
 ,-0.00000006,-0.00000060,0.00000280,0.00000065,-0.00000089,0.00000056,
 -0.00000201,0.00000223,-0.00000104,0.00000084,0.00000115,-0.00000199,0
 .00000038,0.00000045,0.00000044,-0.00000080,0.00000025,0.00000079,0.00
 000050,-0.00000107,0.00005857,-0.00012820,0.00018238,-0.00006412,-0.00
 001429,-0.00005701,-0.00021844,0.00030313,0.00075732,-0.00042118,0.000
 35868,0.00020910,0.00041273,0.00245647,-0.00357232,-0.01420295,-0.1355
 0414,0.22484676,-0.00000706,0.00000301,0.00001544,0.00002802,0.0000022
 1,-0.00004976,-0.00000636,-0.00010072,0.00002066,-0.00005699,-0.000030
 78,0.00000698,0.00000043,-0.00000181,-0.00001372,0.00000317,0.00000520
 ,0.00000989,0.00000122,-0.00001218,-0.00000508,0.00008797,-0.00001843,
 -0.00009466,0.00120846,0.00065981,0.00057150,-0.01233597,-0.00166222,0
 .00189468,-0.30244506,-0.03798938,0.03066810,0.00000166,0.00000683,-0.
 00002058,0.00000561,-0.00000028,0.00000067,-0.00000354,-0.00000458,0.0
 0000187,-0.00000069,-0.00001735,0.00000742,-0.00000401,0.00000382,0.00
 000861,0.00000360,-0.00000682,0.00001411,0.00001280,-0.00000599,0.0000
 0521,0.00000307,0.00000061,0.00000181,0.00001031,-0.00003616,-0.000002
 11,0.00000093,-0.00000161,-0.00000450,-0.00000090,0.00000306,0.0000006
 2,0.00000200,0.00000150,0.00000163,0.00000022,0.00000080,0.00000013,0.
 00000290,0.00000542,0.00000310,-0.00008395,-0.00011436,-0.00003176,0.0
 0000756,0.00002467,0.00001009,0.00024682,0.00005108,-0.00008765,0.0002
 4023,-0.00066459,-0.00015423,0.00005757,-0.00101072,-0.00287719,0.0003
 6870,0.00038259,-0.00023790,0.32769936,-0.00000690,0.00000662,-0.00000
 070,0.00000127,-0.00001916,0.00001037,0.00003688,0.00005375,0.00003418
 ,-0.00000188,-0.00001868,0.00000588,0.00000294,-0.00000744,-0.00000784
 ,0.00000320,0.00000343,0.00000029,-0.00000282,-0.00000651,-0.00000038,
 -0.00003205,0.00003479,0.00000161,-0.00096871,0.00048331,0.00066828,-0
 .01470638,-0.00319151,0.00186565,-0.03760689,-0.05342096,0.00529156,0.
 00000611,0.00000165,-0.00000596,0.00000282,-0.00000046,-0.00000065,0.0
 0000145,0.00000062,-0.00000116,0.00000002,0.00000151,-0.00000016,-0.00
 000147,-0.00000175,-0.00000355,-0.00000277,0.00000351,-0.00000208,0.00
 000429,0.00000575,-0.00000238,-0.00000148,0.00000641,0.00000035,-0.000
 00275,0.00002112,0.00000530,0.00000010,-0.00000105,-0.00000097,-0.0000
 0411,0.00000400,0.00000247,-0.00000270,0.00000171,0.00000134,0.0000003
 7,0.00000091,-0.00000080,0.00000334,0.00000429,0.00000175,0.00003012,0
 .00004363,0.00008526,0.00003904,0.00007945,-0.00003921,0.00012006,0.00
 017042,0.00004255,0.00029342,-0.00000757,-0.00007728,-0.00138166,-0.00
 066959,-0.00296320,0.00064215,0.00032654,0.00015516,0.04326308,0.05289
 958,0.00000113,-0.00000211,0.00000252,0.00001174,-0.00000465,-0.000010
 78,-0.00001618,-0.00006966,0.00001598,-0.00000418,-0.00000750,0.000014
 67,-0.00000031,0.00000755,-0.00000534,0.00000021,-0.00000234,0.0000042
 0,0.00000133,0.00000145,0.00000054,0.00014818,-0.00003170,-0.00003377,
 -0.00052343,0.00083592,0.00147938,-0.02758324,-0.00471329,0.00327832,0
 .03138269,0.00537657,-0.05104185,-0.00000149,0.00000754,-0.00000769,-0
 .00000142,0.00000040,-0.00000191,-0.00000008,-0.00000069,0.00000151,-0
 .00000106,-0.00000569,0.00000387,0.00000090,0.00000096,0.00000175,-0.0
 0000053,0.00000305,-0.00000362,0.00000258,0.00000067,-0.00000036,0.000
 00158,0.00000057,-0.00000125,-0.00000348,-0.00000005,0.00000286,0.0000
 0108,0.00000147,-0.00000289,0.00000099,-0.00000004,-0.00000170,0.00000
 119,-0.00000101,-0.00000072,-0.00000081,0.00000142,-0.00000049,-0.0000
 0134,-0.00000215,0.00000112,-0.00004863,-0.00006624,-0.00005272,-0.000
 02023,0.00006654,-0.00003900,0.00009350,0.00035507,-0.00000931,0.00057
 195,0.00011614,-0.00005499,-0.00242495,-0.00295952,-0.00404285,0.00037
 664,0.00068690,0.00102319,-0.03128776,-0.00271133,0.05328725,0.0000162
 7,-0.00000314,-0.00000203,0.00002391,0.00001083,-0.00002314,-0.0000428
 5,-0.00009540,-0.00004608,-0.00003447,-0.00000757,0.00000620,0.0000120
 1,0.00001302,-0.00000163,-0.00000354,-0.00000997,0.00000713,0.00000465
 ,0.00000117,-0.00000474,0.00034365,0.00011057,0.00007915,0.00013294,-0
 .00000440,0.00083055,0.00128508,0.00833373,-0.01152860,-0.05388371,-0.
 02186559,0.03330983,-0.00000362,0.00000170,-0.00000484,-0.00000404,0.0
 0000116,-0.00000261,-0.00000386,-0.00000150,0.00000115,-0.00000154,-0.
 00001186,0.00000502,0.00000019,0.00000384,0.00000353,0.00000208,0.0000
 0016,-0.00000102,0.00000666,-0.00000411,0.00000012,0.00000001,0.000001
 12,0.00000025,-0.00000384,-0.00001177,-0.00000272,0.00000108,0.0000016
 3,-0.00000248,0.00000329,-0.00000187,-0.00000247,0.00000245,-0.0000006
 8,-0.00000096,-0.00000105,0.00000167,0.00000011,-0.00000136,-0.0000018
 3,0.00000145,-0.00009783,0.00023965,0.00002368,-0.00010836,0.00000281,
 0.00006410,-0.00004421,0.00002485,-0.00001400,0.00001678,0.00000287,-0
 .00000939,0.00053024,0.00074248,0.00036545,-0.00009113,-0.00146730,-0.
 00285403,-0.00308702,-0.01795578,0.02588414,0.05302354,0.00000045,0.00
 000866,-0.00000819,0.00001286,0.00005465,0.00001086,-0.00011526,-0.000
 04434,-0.00032861,-0.00002983,0.00001691,-0.00000525,-0.00000726,0.000
 00496,0.00001377,-0.00000226,-0.00000157,0.00000213,0.00000088,0.00000
 089,-0.00000112,0.00075185,-0.00115077,0.00015264,0.00050748,0.0005679
 3,0.00036179,0.00266347,0.00973013,-0.01357118,-0.02181407,-0.12962295
 ,0.12259969,0.00000236,0.00000667,-0.00000729,-0.00000161,-0.00000020,
 -0.00000080,0.00000217,0.00000185,-0.00000070,0.00000097,0.00000552,-0
 .00000722,0.00000327,0.00001349,-0.00000072,0.00000269,0.00000009,-0.0
 0000572,0.00000140,0.00000169,0.00000113,0.00000044,0.00000216,-0.0000
 0223,-0.00000878,0.00001244,0.00000746,0.00000074,-0.00000003,-0.00000
 108,-0.00000054,0.00000047,0.00000026,-0.00000041,-0.00000046,-0.00000
 037,-0.00000038,0.00000113,-0.00000060,-0.00000023,-0.00000088,0.00000
 066,0.00004747,-0.00156704,-0.00055110,-0.00014618,0.00008591,0.000162
 23,-0.00013429,0.00009755,0.00018734,-0.00000442,-0.00005973,-0.000035
 81,0.00054348,0.00062576,0.00077161,-0.00107689,-0.00043627,-0.0030594
 7,-0.00002237,-0.00260395,0.00218652,0.02435606,0.13884829,-0.00000126
 ,-0.00000912,-0.00001200,-0.00002744,-0.00011104,0.00006399,0.00005937
 ,0.00026582,0.00045547,0.00009776,0.00002253,-0.00006491,-0.00002857,-
 0.00001989,0.00000569,0.00000284,0.00000205,-0.00001020,-0.00000418,-0
 .00000088,0.00000214,-0.00028392,-0.00031399,-0.00047703,-0.00001093,0
 .00076905,0.00034252,0.00414203,0.01542982,-0.02077035,0.03271822,0.12
 136125,-0.22863821,-0.00000437,-0.00000016,0.00003274,-0.00000326,0.00
 000207,-0.00000065,0.00000550,0.00000658,0.00000171,-0.00000433,0.0000
 0499,0.00000324,0.00000231,-0.00001150,-0.00001920,-0.00000849,-0.0000
 0780,0.00002554,-0.00002722,0.00000839,0.00001245,0.00000476,-0.000003
 72,-0.00000035,0.00000056,0.00000583,-0.00000733,-0.00000203,-0.000001
 02,0.00000363,-0.00000214,0.00000232,0.00000254,-0.00000290,0.00000040
 ,-0.00000033,0.00000083,-0.00000140,0.00000077,0.00000076,0.00000182,-
 0.00000108,0.00036483,-0.00010089,0.00063893,0.00003642,-0.00007692,-0
 .00009792,-0.00005619,-0.00022234,0.00011662,0.00003060,-0.00009264,0.
 00001272,-0.00007099,0.00009150,0.00138063,-0.00243438,-0.00315827,-0.
 00396974,0.00010513,0.00112514,-0.00237804,-0.03338498,-0.13180979,0.2
 4865259,0.00000018,0.00000247,-0.00000220,0.00002017,-0.00000496,-0.00
 000672,0.00000610,-0.00001396,0.00005790,-0.00002504,-0.00003705,-0.00
 001099,-0.00000706,0.00000237,-0.00001264,0.,0.00000823,0.00000059,-0.
 00000052,-0.00000782,-0.00000061,0.00002530,0.00010407,-0.00021540,-0.
 00056695,-0.00058335,-0.00182308,0.00584602,-0.01336039,-0.00202062,-0
 .09985831,0.10530468,0.01676883,-0.00000656,-0.00000308,0.00000571,0.0
 0000073,0.00000075,0.00000056,-0.00000114,0.00000017,0.00000138,-0.000
 00197,-0.00000757,0.00000388,-0.00000074,-0.00000113,0.00000418,-0.000
 00447,-0.00000084,0.00001533,0.00000697,-0.00000471,0.00001171,0.00000
 028,0.00000313,0.00000179,0.00000934,-0.00000837,0.00000097,0.00000066
 ,-0.00000154,-0.00000171,-0.00000244,0.00000224,0.00000115,-0.00000085
 ,0.00000121,0.00000139,0.00000050,0.00000059,-0.00000046,0.00000237,0.
 00000239,0.00000110,0.00001420,-0.00000304,0.00004777,-0.00000840,0.00
 002443,0.00004983,0.00038904,-0.00038218,-0.00029082,0.00023442,-0.000
 14609,-0.00012630,0.00045467,0.00017383,0.00067479,0.00036693,0.000315
 96,0.00063969,-0.01197044,0.02823162,0.00343608,0.00201421,-0.00552863
 ,-0.00121604,0.10305431,0.00001550,-0.00000175,0.00001340,0.00008873,0
 .00006533,-0.00010241,-0.00002845,-0.00038135,-0.00002331,-0.00011862,
 -0.00006348,0.00005696,0.00001718,0.00004366,-0.00003917,-0.00000214,0
 .00001014,0.00001713,0.00000456,-0.00000948,-0.00000463,0.00025873,0.0
 0057349,-0.00018926,-0.00252379,0.00029316,-0.00263065,0.00692899,-0.0
 1142523,0.00004827,0.10430559,-0.25949798,-0.03284309,-0.00002526,-0.0
 0002199,0.00000401,0.00000138,0.00000488,0.00000034,-0.00001178,-0.000
 01071,0.00000476,-0.00000043,-0.00003893,0.00001524,-0.00000348,0.0000
 0771,0.00003254,-0.00000160,0.00001463,0.00001821,0.00003050,-0.000021
 31,0.00001155,0.00000110,-0.00000410,0.00000609,-0.00000430,-0.0000105
 2,-0.00000071,-0.00000049,0.00000211,-0.00000199,0.00000322,-0.0000039
 8,-0.00000330,0.00000648,0.00000067,0.00000130,0.00000053,-0.00000037,
 0.00000181,-0.00000147,0.00000119,0.00000064,-0.00012197,-0.00006075,-
 0.00019217,-0.00007288,0.00001210,0.00005066,0.00056126,-0.00092581,-0
 .00021564,0.00010294,0.00007939,0.00004890,-0.00032673,0.00004124,0.00
 035135,0.00007843,0.00106053,-0.00006062,-0.00269951,0.00579522,0.0009
 3297,0.00759262,-0.01459902,-0.00315788,-0.11407685,0.27907366,0.00000
 483,-0.00000468,0.00000768,0.00007875,-0.00004023,-0.00002279,0.000071
 23,-0.00014626,0.00037341,-0.00003192,-0.00002803,-0.00000237,-0.00000
 614,0.00000102,-0.00001855,0.00000024,0.00000445,0.00000818,0.00000286
 ,-0.00000342,-0.00000446,-0.00028832,0.00046790,-0.00084037,-0.0037273
 6,-0.00153549,-0.00424571,0.01388309,-0.02431402,-0.00388838,0.0158305
 1,-0.03136091,-0.05201559,-0.00002393,-0.00001635,0.00001814,0.0000004
 8,0.00000264,0.00000035,-0.00000442,-0.00000226,0.00000442,-0.00000483
 ,-0.00003268,0.00002049,-0.00000341,-0.00000590,0.00001141,-0.00001122
 ,0.00000659,0.00003255,0.00000452,-0.00001653,0.00001083,0.00000434,-0
 .00000395,0.00000368,-0.00000023,-0.00000402,-0.00000406,-0.00000173,0
 .00000045,-0.00000019,0.00000015,-0.00000079,-0.00000090,0.00000254,0.
 00000073,0.00000126,0.00000040,-0.00000057,0.00000071,0.00000010,0.000
 00139,0.00000015,0.00023129,0.00013719,0.00038099,0.00000482,-0.000074
 52,0.00002003,0.00058218,-0.00159610,-0.00047580,-0.00009586,0.0003253
 1,0.00008316,-0.00011491,0.00050868,0.00084729,0.00077042,0.00044774,0
 .00099776,0.00150807,-0.00348300,-0.00143436,-0.01270252,0.02292671,0.
 00472792,-0.01598844,0.03784826,0.05542837,0.00060054,0.00336114,0.000
 36518,0.00062525,0.00005277,-0.00232355,0.00002082,0.00032648,0.000362
 03,-0.00231842,0.00167032,-0.00145852,0.00050986,-0.00166312,-0.000235
 21,-0.00001823,-0.00021528,0.00026123,-0.00001637,0.00019248,-0.000068
 61,0.00059199,0.00008996,0.00023239,-0.00013135,0.00011346,0.00037159,
 0.00017288,-0.00003140,-0.00001810,-0.00002414,0.00006776,-0.00000594,
 -0.04732446,-0.07511486,0.08977756,0.00011220,-0.00148995,-0.00045584,
 0.00046302,-0.00058922,-0.00226733,-0.00017220,0.00005384,-0.00004839,
 -0.00022307,-0.00017121,0.00029663,-0.00002794,0.00015565,0.00002020,0
 .00045521,0.00008621,0.00052731,0.00003108,0.00004943,0.00000008,-0.00
 012162,-0.00016508,-0.00012502,0.00002481,-0.00000444,0.00000647,0.000
 01272,-0.00000915,0.00000444,-0.00000282,0.00000262,0.00000306,-0.0000
 0244,-0.00000260,0.00000119,0.00001058,-0.00000438,-0.00000167,-0.0001
 2174,0.00006091,0.00008994,-0.00023579,-0.00004951,-0.00004780,-0.0001
 5169,-0.00031546,-0.00025964,0.00005617,0.00011580,0.00005896,0.000001
 89,-0.00000688,-0.00001008,-0.00000554,0.00002268,-0.00002654,0.000009
 36,-0.00000392,0.00000319,-0.00000659,-0.00000463,0.00000173,0.0000084
 9,0.00002204,0.00002442,0.04719753,0.00845325,0.01732054,-0.01697714,-
 0.00032778,0.00002564,-0.00141538,-0.00142774,0.00010492,-0.00220014,0
 .00112256,-0.00267115,0.00156602,-0.00019460,0.00171340,-0.00071619,0.
 00021894,0.00035721,-0.00028101,-0.00010259,-0.00031414,0.00029692,-0.
 00006011,-0.00012778,0.00006838,0.00016759,0.00004096,0.00020893,-0.00
 004191,-0.00003365,-0.00002214,-0.00001299,-0.00002893,0.00000026,-0.0
 8238065,-0.16510164,0.15658535,0.00104561,-0.00128052,-0.00083194,0.00
 019216,-0.00197619,-0.00551842,-0.00007722,0.00022926,0.00020853,-0.00
 045563,-0.00051645,0.00000280,0.00032442,-0.00009632,0.00000218,-0.000
 04449,-0.00029710,-0.00058660,-0.00000249,-0.00000283,0.00005244,0.000
 12173,0.00011462,0.00018849,-0.00007064,-0.00003186,-0.00000606,-0.000
 01812,0.00003297,-0.00003302,0.00000954,0.00000111,0.00000849,0.000009
 85,0.00000532,0.00000685,-0.00000801,0.00001088,0.00001511,0.00006338,
 0.00005154,-0.00005510,0.00007625,0.00012658,0.00008792,0.00005731,0.0
 0011725,0.00000718,-0.00001130,-0.00011717,-0.00001742,-0.00000696,0.0
 0001447,0.00000577,0.00000275,-0.00000866,0.00000132,-0.00001382,0.000
 00039,-0.00000375,0.00000082,0.00000009,-0.00000029,-0.00000660,-0.000
 00235,-0.00000936,0.07339751,0.15233958,0.01081465,0.01053752,-0.03421
 216,-0.00162238,0.00150342,-0.00063339,0.00104741,0.00253449,0.0026956
 8,-0.00180451,-0.00009420,-0.00164634,0.00083989,-0.00095925,0.0001593
 1,-0.00025700,-0.00000544,0.00052310,0.00028520,0.00017324,-0.00041222
 ,0.00117039,-0.00129753,0.00000319,-0.00020179,-0.00032850,-0.00046919
 ,-0.00005073,0.00015369,-0.00016751,0.00000803,-0.00006224,0.00004315,
 0.07462726,0.11504355,-0.18930533,-0.00073044,0.00246269,0.00183588,-0
 .00027645,-0.00199710,0.00001182,-0.00011095,-0.00052191,-0.00023984,0
 .00113722,0.00117298,0.00090584,0.00032396,0.00068775,0.00065374,0.000
 00836,0.00044462,0.00103523,-0.00011016,-0.00006206,-0.00014359,-0.000
 20934,-0.00005623,-0.00027865,0.00006263,0.00008923,-0.00001700,0.0000
 1178,-0.00006088,0.00005577,0.00003719,0.00000528,0.00000414,-0.000013
 77,-0.00000528,-0.00001833,0.00000093,-0.00001268,-0.00002101,0.000030
 86,0.00074295,0.00030864,0.00010030,-0.00004542,0.00003696,-0.00001532
 ,0.00046476,0.00044357,-0.00001902,0.00006658,-0.00002885,0.00000405,-
 0.00001656,0.00000455,-0.00004187,0.00006507,0.00004436,0.00001118,0.0
 0000354,0.00000650,0.00000640,0.00001247,-0.00003449,-0.00000861,0.000
 00042,-0.00002526,-0.08505536,-0.13063897,0.21888169\\0.00000017,-0.00
 001118,-0.00001023,-0.00000313,0.00000200,0.00000105,0.00000669,-0.000
 00188,-0.00000783,0.00000117,0.00000571,0.00000627,0.00000188,-0.00000
 060,-0.00000046,-0.00000033,0.00000212,0.00000324,-0.00000017,0.000000
 87,0.00000485,-0.00000310,-0.00000129,0.00000095,0.00000436,-0.0000010
 6,-0.00000460,-0.00000251,0.00000202,0.00000215,-0.00000176,-0.0000017
 9,0.00000461,-0.00000006,0.00000800,-0.00000231,-0.00000132,-0.0000036
 7,-0.00000776,-0.00000390,-0.00000195,-0.00000485,-0.00000182,-0.00000
 284,-0.00000749,0.00000319,-0.00000257,-0.00000307,0.00000265,0.000003
 80,-0.00000241,0.00000163,0.00000197,-0.00000359,-0.00000009,-0.000000
 57,0.00000094,-0.00000122,-0.00000052,0.00000223,0.00000227,0.00000335
 ,0.00000411,0.00000172,0.00000241,0.00000074,0.00000034,0.00000247,0.0
 0000537,-0.00000107,-0.00000021,0.00000334,-0.00000107,0.00000054,0.00
 000618,-0.00000201,-0.00000194,-0.00000016,0.00000060,-0.00000189,-0.0
 0000195,0.00000080,0.00000250,0.00000204,-0.00000035,0.00000156,0.0000
 0326,-0.00000019,-0.00000115,0.00000035,0.00000043,0.00000151,0.000003
 72,-0.00000189,-0.00000115,0.00000552,-0.00000347,-0.00000269,0.000002
 56,-0.00000251,-0.00000223,0.00000392,0.00000407,0.00000036,-0.0000106
 8\\\@
 The archive entry for this job was punched.


 "WHERE SHALL I START, PLEASE YOUR MAJESTY?" HE ASKED.
 "BEGIN AT THE BEGINNING," THE KING SAID GRAVELY,
 "AND GO ON TILL YOU COME TO THE END: THEN STOP." 

                                      -- LEWIS CARROLL
 Job cpu time:       0 days  3 hours 33 minutes 43.5 seconds.
 Elapsed time:       0 days  0 hours 15 minutes 12.5 seconds.
 File lengths (MBytes):  RWF=    844 Int=      0 D2E=      0 Chk=     21 Scr=      1
 Normal termination of Gaussian 16 at Fri Nov 11 02:28:23 2022.
