 Entering Gaussian System, Link 0=g16
 Input=DBAE-conformers-14.gau
 Output=DBAE-conformers-14.log
 Initial command:
 /apps/gaussian/g16c01/g16/l1.exe "/jobfs/62954164.gadi-pbs/Gau-252799.inp" -scrdir="/jobfs/62954164.gadi-pbs/"
 Default is to use a total of  20 processors:
                               20 via shared-memory
                                1 via Linda
 Entering Link 1 = /apps/gaussian/g16c01/g16/l1.exe PID=    252800.
  
 Copyright (c) 1988-2019, Gaussian, Inc.  All Rights Reserved.
  
 This is part of the Gaussian(R) 16 program.  It is based on
 the Gaussian(R) 09 system (copyright 2009, Gaussian, Inc.),
 the Gaussian(R) 03 system (copyright 2003, Gaussian, Inc.),
 the Gaussian(R) 98 system (copyright 1998, Gaussian, Inc.),
 the Gaussian(R) 94 system (copyright 1995, Gaussian, Inc.),
 the Gaussian 92(TM) system (copyright 1992, Gaussian, Inc.),
 the Gaussian 90(TM) system (copyright 1990, Gaussian, Inc.),
 the Gaussian 88(TM) system (copyright 1988, Gaussian, Inc.),
 the Gaussian 86(TM) system (copyright 1986, Carnegie Mellon
 University), and the Gaussian 82(TM) system (copyright 1983,
 Carnegie Mellon University). Gaussian is a federally registered
 trademark of Gaussian, Inc.
  
 This software contains proprietary and confidential information,
 including trade secrets, belonging to Gaussian, Inc.
  
 This software is provided under written license and may be
 used, copied, transmitted, or stored only in accord with that
 written license.
  
 The following legend is applicable only to US Government
 contracts under FAR:
  
                    RESTRICTED RIGHTS LEGEND
  
 Use, reproduction and disclosure by the US Government is
 subject to restrictions as set forth in subparagraphs (a)
 and (c) of the Commercial Computer Software - Restricted
 Rights clause in FAR 52.227-19.
  
 Gaussian, Inc.
 340 Quinnipiac St., Bldg. 40, Wallingford CT 06492
  
  
 ---------------------------------------------------------------
 Warning -- This program may not be used in any manner that
 competes with the business of Gaussian, Inc. or will provide
 assistance to any competitor of Gaussian, Inc.  The licensee
 of this program is prohibited from giving any competitor of
 Gaussian, Inc. access to this program.  By using this program,
 the user acknowledges that Gaussian, Inc. is engaged in the
 business of creating and licensing software in the field of
 computational chemistry and represents and warrants to the
 licensee that it is not a competitor of Gaussian, Inc. and that
 it will not use this program in any manner prohibited above.
 ---------------------------------------------------------------
  

 Cite this work as:
 Gaussian 16, Revision C.01,
 M. J. Frisch, G. W. Trucks, H. B. Schlegel, G. E. Scuseria, 
 M. A. Robb, J. R. Cheeseman, G. Scalmani, V. Barone, 
 G. A. Petersson, H. Nakatsuji, X. Li, M. Caricato, A. V. Marenich, 
 J. Bloino, B. G. Janesko, R. Gomperts, B. Mennucci, H. P. Hratchian, 
 J. V. Ortiz, A. F. Izmaylov, J. L. Sonnenberg, D. Williams-Young, 
 F. Ding, F. Lipparini, F. Egidi, J. Goings, B. Peng, A. Petrone, 
 T. Henderson, D. Ranasinghe, V. G. Zakrzewski, J. Gao, N. Rega, 
 G. Zheng, W. Liang, M. Hada, M. Ehara, K. Toyota, R. Fukuda, 
 J. Hasegawa, M. Ishida, T. Nakajima, Y. Honda, O. Kitao, H. Nakai, 
 T. Vreven, K. Throssell, J. A. Montgomery, Jr., J. E. Peralta, 
 F. Ogliaro, M. J. Bearpark, J. J. Heyd, E. N. Brothers, K. N. Kudin, 
 V. N. Staroverov, T. A. Keith, R. Kobayashi, J. Normand, 
 K. Raghavachari, A. P. Rendell, J. C. Burant, S. S. Iyengar, 
 J. Tomasi, M. Cossi, J. M. Millam, M. Klene, C. Adamo, R. Cammi, 
 J. W. Ochterski, R. L. Martin, K. Morokuma, O. Farkas, 
 J. B. Foresman, and D. J. Fox, Gaussian, Inc., Wallingford CT, 2019.
 
 ******************************************
 Gaussian 16:  ES64L-G16RevC.01  3-Jul-2019
                 7-Nov-2022 
 ******************************************
 %chk=DBAE-conformers-14.chk
 Default route: Maxdisk=0MB
 ----------------------------------------------------------------------
 # opt(maxcycles=1000) freq=Noraman scf(maxcycle=500) uwb97xd/6-31+G(d,
 p) scrf=(smd,solvent=acetonitrile)
 ----------------------------------------------------------------------
 1/6=1000,18=20,19=15,26=3,38=1/1,3;
 2/9=110,12=2,17=6,18=5,40=1/2;
 3/5=1,6=6,7=111,11=2,25=1,30=1,70=32201,71=1,72=2,74=-58,116=2/1,2,3;
 4//1;
 5/5=2,7=500,38=5,53=2/2;
 6/7=2,8=2,9=2,10=2,28=1/1;
 7//1,2,3,16;
 1/6=1000,18=20,19=15,26=3/3(2);
 2/9=110/2;
 99//99;
 2/9=110/2;
 3/5=1,6=6,7=111,11=2,25=1,30=1,70=32205,71=1,72=2,74=-58,116=2/1,2,3;
 4/5=5,16=3,69=1/1;
 5/5=2,7=500,38=5,53=2/2;
 7//1,2,3,16;
 1/6=1000,18=20,19=15,26=3/3(-5);
 2/9=110/2;
 6/7=2,8=2,9=2,10=2,19=2,28=1/1;
 99/9=1/99;
 ----------
 OPT + Freq
 ----------
 Symbolic Z-matrix:
 Charge = -1 Multiplicity = 2
 C                    -1.36459   2.11288  -0.27626 
 C                    -0.1358    1.29292  -0.68262 
 N                    -0.03015   0.08222   0.14385 
 C                     1.29005  -0.07705   0.76921 
 C                     2.45947  -0.37514  -0.17969 
 C                     3.80222  -0.37648   0.55751 
 C                     4.97603  -0.7362   -0.35789 
 C                    -0.46889  -1.13987  -0.5412 
 C                    -1.96829  -1.18346  -0.84567 
 C                    -2.86043  -1.14483   0.39792 
 C                    -4.35047  -1.17307   0.04592 
 O                    -1.38283   2.27705   1.14282 
 H                    -2.29134   1.62552  -0.60664 
 H                    -1.32235   3.11085  -0.72474 
 H                     0.75341   1.91232  -0.52011 
 H                    -0.17805   1.05623  -1.75651 
 H                     1.21238  -0.88498   1.50919 
 H                     1.50453   0.84373   1.32701 
 H                     2.4872    0.37438  -0.98329 
 H                     2.31071  -1.35071  -0.66098 
 H                     3.75594  -1.08923   1.39305 
 H                     3.97042   0.61394   1.00301 
 H                     4.84352  -1.73764  -0.78547 
 H                     5.92744  -0.72494   0.18611 
 H                     5.05436  -0.02528  -1.1898 
 H                    -0.21753  -1.98561   0.11165 
 H                     0.08666  -1.28228  -1.4846 
 H                    -2.16385  -2.11227  -1.39959 
 H                    -2.23947  -0.36514  -1.52591 
 H                    -2.63917  -0.24415   0.98194 
 H                    -2.6127   -2.00079   1.04121 
 H                    -4.621    -0.30481  -0.56803 
 H                    -4.97544  -1.1564    0.94618 
 H                    -4.60299  -2.07597  -0.52407 
 H                    -1.10608   1.40676   1.4797 
 

 GradGradGradGradGradGradGradGradGradGradGradGradGradGradGradGradGradGrad
 Berny optimization.
 Initialization pass.
                           ----------------------------
                           !    Initial Parameters    !
                           ! (Angstroms and Degrees)  !
 --------------------------                            --------------------------
 ! Name  Definition              Value          Derivative Info.                !
 --------------------------------------------------------------------------------
 ! R1    R(1,2)                  1.5321         estimate D2E/DX2                !
 ! R2    R(1,12)                 1.4287         estimate D2E/DX2                !
 ! R3    R(1,13)                 1.098          estimate D2E/DX2                !
 ! R4    R(1,14)                 1.0949         estimate D2E/DX2                !
 ! R5    R(2,3)                  1.4697         estimate D2E/DX2                !
 ! R6    R(2,15)                 1.0958         estimate D2E/DX2                !
 ! R7    R(2,16)                 1.1005         estimate D2E/DX2                !
 ! R8    R(3,4)                  1.4695         estimate D2E/DX2                !
 ! R9    R(3,8)                  1.4681         estimate D2E/DX2                !
 ! R10   R(4,5)                  1.5352         estimate D2E/DX2                !
 ! R11   R(4,17)                 1.0983         estimate D2E/DX2                !
 ! R12   R(4,18)                 1.0977         estimate D2E/DX2                !
 ! R13   R(5,6)                  1.5318         estimate D2E/DX2                !
 ! R14   R(5,19)                 1.0992         estimate D2E/DX2                !
 ! R15   R(5,20)                 1.0979         estimate D2E/DX2                !
 ! R16   R(6,7)                  1.5314         estimate D2E/DX2                !
 ! R17   R(6,21)                 1.0992         estimate D2E/DX2                !
 ! R18   R(6,22)                 1.0989         estimate D2E/DX2                !
 ! R19   R(7,23)                 1.0969         estimate D2E/DX2                !
 ! R20   R(7,24)                 1.096          estimate D2E/DX2                !
 ! R21   R(7,25)                 1.0971         estimate D2E/DX2                !
 ! R22   R(8,9)                  1.5306         estimate D2E/DX2                !
 ! R23   R(8,26)                 1.0976         estimate D2E/DX2                !
 ! R24   R(8,27)                 1.104          estimate D2E/DX2                !
 ! R25   R(9,10)                 1.531          estimate D2E/DX2                !
 ! R26   R(9,28)                 1.099          estimate D2E/DX2                !
 ! R27   R(9,29)                 1.0981         estimate D2E/DX2                !
 ! R28   R(10,11)                1.5313         estimate D2E/DX2                !
 ! R29   R(10,30)                1.096          estimate D2E/DX2                !
 ! R30   R(10,31)                1.099          estimate D2E/DX2                !
 ! R31   R(11,32)                1.0973         estimate D2E/DX2                !
 ! R32   R(11,33)                1.096          estimate D2E/DX2                !
 ! R33   R(11,34)                1.0972         estimate D2E/DX2                !
 ! R34   R(12,35)                0.9734         estimate D2E/DX2                !
 ! A1    A(2,1,12)             109.584          estimate D2E/DX2                !
 ! A2    A(2,1,13)             111.0747         estimate D2E/DX2                !
 ! A3    A(2,1,14)             110.3774         estimate D2E/DX2                !
 ! A4    A(12,1,13)            109.8231         estimate D2E/DX2                !
 ! A5    A(12,1,14)            107.6147         estimate D2E/DX2                !
 ! A6    A(13,1,14)            108.2938         estimate D2E/DX2                !
 ! A7    A(1,2,3)              110.4488         estimate D2E/DX2                !
 ! A8    A(1,2,15)             107.9974         estimate D2E/DX2                !
 ! A9    A(1,2,16)             110.0682         estimate D2E/DX2                !
 ! A10   A(3,2,15)             108.8993         estimate D2E/DX2                !
 ! A11   A(3,2,16)             111.9832         estimate D2E/DX2                !
 ! A12   A(15,2,16)            107.305          estimate D2E/DX2                !
 ! A13   A(2,3,4)              113.1527         estimate D2E/DX2                !
 ! A14   A(2,3,8)              113.6942         estimate D2E/DX2                !
 ! A15   A(4,3,8)              112.1385         estimate D2E/DX2                !
 ! A16   A(3,4,5)              116.2546         estimate D2E/DX2                !
 ! A17   A(3,4,17)             107.6329         estimate D2E/DX2                !
 ! A18   A(3,4,18)             107.5102         estimate D2E/DX2                !
 ! A19   A(5,4,17)             109.1149         estimate D2E/DX2                !
 ! A20   A(5,4,18)             109.1548         estimate D2E/DX2                !
 ! A21   A(17,4,18)            106.7674         estimate D2E/DX2                !
 ! A22   A(4,5,6)              111.7419         estimate D2E/DX2                !
 ! A23   A(4,5,19)             109.7964         estimate D2E/DX2                !
 ! A24   A(4,5,20)             109.893          estimate D2E/DX2                !
 ! A25   A(6,5,19)             109.2875         estimate D2E/DX2                !
 ! A26   A(6,5,20)             109.205          estimate D2E/DX2                !
 ! A27   A(19,5,20)            106.7875         estimate D2E/DX2                !
 ! A28   A(5,6,7)              112.6075         estimate D2E/DX2                !
 ! A29   A(5,6,21)             109.237          estimate D2E/DX2                !
 ! A30   A(5,6,22)             109.176          estimate D2E/DX2                !
 ! A31   A(7,6,21)             109.5315         estimate D2E/DX2                !
 ! A32   A(7,6,22)             109.6764         estimate D2E/DX2                !
 ! A33   A(21,6,22)            106.4206         estimate D2E/DX2                !
 ! A34   A(6,7,23)             110.7848         estimate D2E/DX2                !
 ! A35   A(6,7,24)             111.4851         estimate D2E/DX2                !
 ! A36   A(6,7,25)             110.8413         estimate D2E/DX2                !
 ! A37   A(23,7,24)            107.9217         estimate D2E/DX2                !
 ! A38   A(23,7,25)            107.736          estimate D2E/DX2                !
 ! A39   A(24,7,25)            107.9229         estimate D2E/DX2                !
 ! A40   A(3,8,9)              114.1596         estimate D2E/DX2                !
 ! A41   A(3,8,26)             107.1839         estimate D2E/DX2                !
 ! A42   A(3,8,27)             110.8373         estimate D2E/DX2                !
 ! A43   A(9,8,26)             108.7065         estimate D2E/DX2                !
 ! A44   A(9,8,27)             108.6201         estimate D2E/DX2                !
 ! A45   A(26,8,27)            107.0753         estimate D2E/DX2                !
 ! A46   A(8,9,10)             114.1134         estimate D2E/DX2                !
 ! A47   A(8,9,28)             107.3762         estimate D2E/DX2                !
 ! A48   A(8,9,29)             110.1147         estimate D2E/DX2                !
 ! A49   A(10,9,28)            109.0895         estimate D2E/DX2                !
 ! A50   A(10,9,29)            109.9052         estimate D2E/DX2                !
 ! A51   A(28,9,29)            105.8806         estimate D2E/DX2                !
 ! A52   A(9,10,11)            112.3236         estimate D2E/DX2                !
 ! A53   A(9,10,30)            109.6289         estimate D2E/DX2                !
 ! A54   A(9,10,31)            108.9321         estimate D2E/DX2                !
 ! A55   A(11,10,30)           109.516          estimate D2E/DX2                !
 ! A56   A(11,10,31)           109.8474         estimate D2E/DX2                !
 ! A57   A(30,10,31)           106.417          estimate D2E/DX2                !
 ! A58   A(10,11,32)           110.7275         estimate D2E/DX2                !
 ! A59   A(10,11,33)           111.4535         estimate D2E/DX2                !
 ! A60   A(10,11,34)           111.01           estimate D2E/DX2                !
 ! A61   A(32,11,33)           107.876          estimate D2E/DX2                !
 ! A62   A(32,11,34)           107.6829         estimate D2E/DX2                !
 ! A63   A(33,11,34)           107.9375         estimate D2E/DX2                !
 ! A64   A(1,12,35)            103.7332         estimate D2E/DX2                !
 ! D1    D(12,1,2,3)            48.9192         estimate D2E/DX2                !
 ! D2    D(12,1,2,15)          -70.0676         estimate D2E/DX2                !
 ! D3    D(12,1,2,16)          173.0822         estimate D2E/DX2                !
 ! D4    D(13,1,2,3)           -72.6037         estimate D2E/DX2                !
 ! D5    D(13,1,2,15)          168.4095         estimate D2E/DX2                !
 ! D6    D(13,1,2,16)           51.5593         estimate D2E/DX2                !
 ! D7    D(14,1,2,3)           167.2647         estimate D2E/DX2                !
 ! D8    D(14,1,2,15)           48.2779         estimate D2E/DX2                !
 ! D9    D(14,1,2,16)          -68.5723         estimate D2E/DX2                !
 ! D10   D(2,1,12,35)          -40.6573         estimate D2E/DX2                !
 ! D11   D(13,1,12,35)          81.6154         estimate D2E/DX2                !
 ! D12   D(14,1,12,35)        -160.705          estimate D2E/DX2                !
 ! D13   D(1,2,3,4)           -127.8235         estimate D2E/DX2                !
 ! D14   D(1,2,3,8)            102.738          estimate D2E/DX2                !
 ! D15   D(15,2,3,4)            -9.3861         estimate D2E/DX2                !
 ! D16   D(15,2,3,8)          -138.8245         estimate D2E/DX2                !
 ! D17   D(16,2,3,4)           109.121          estimate D2E/DX2                !
 ! D18   D(16,2,3,8)           -20.3174         estimate D2E/DX2                !
 ! D19   D(2,3,4,5)            -68.1576         estimate D2E/DX2                !
 ! D20   D(2,3,4,17)           169.1649         estimate D2E/DX2                !
 ! D21   D(2,3,4,18)            54.4756         estimate D2E/DX2                !
 ! D22   D(8,3,4,5)             62.0694         estimate D2E/DX2                !
 ! D23   D(8,3,4,17)           -60.6081         estimate D2E/DX2                !
 ! D24   D(8,3,4,18)          -175.2975         estimate D2E/DX2                !
 ! D25   D(2,3,8,9)            -67.2356         estimate D2E/DX2                !
 ! D26   D(2,3,8,26)           172.3234         estimate D2E/DX2                !
 ! D27   D(2,3,8,27)            55.8003         estimate D2E/DX2                !
 ! D28   D(4,3,8,9)            162.8162         estimate D2E/DX2                !
 ! D29   D(4,3,8,26)            42.3752         estimate D2E/DX2                !
 ! D30   D(4,3,8,27)           -74.1479         estimate D2E/DX2                !
 ! D31   D(3,4,5,6)            174.0624         estimate D2E/DX2                !
 ! D32   D(3,4,5,19)            52.6303         estimate D2E/DX2                !
 ! D33   D(3,4,5,20)           -64.5435         estimate D2E/DX2                !
 ! D34   D(17,4,5,6)           -64.0391         estimate D2E/DX2                !
 ! D35   D(17,4,5,19)          174.5288         estimate D2E/DX2                !
 ! D36   D(17,4,5,20)           57.355          estimate D2E/DX2                !
 ! D37   D(18,4,5,6)            52.2946         estimate D2E/DX2                !
 ! D38   D(18,4,5,19)          -69.1374         estimate D2E/DX2                !
 ! D39   D(18,4,5,20)          173.6887         estimate D2E/DX2                !
 ! D40   D(4,5,6,7)            177.3264         estimate D2E/DX2                !
 ! D41   D(4,5,6,21)            55.3964         estimate D2E/DX2                !
 ! D42   D(4,5,6,22)           -60.6022         estimate D2E/DX2                !
 ! D43   D(19,5,6,7)           -60.9478         estimate D2E/DX2                !
 ! D44   D(19,5,6,21)          177.1223         estimate D2E/DX2                !
 ! D45   D(19,5,6,22)           61.1237         estimate D2E/DX2                !
 ! D46   D(20,5,6,7)            55.5351         estimate D2E/DX2                !
 ! D47   D(20,5,6,21)          -66.3948         estimate D2E/DX2                !
 ! D48   D(20,5,6,22)          177.6065         estimate D2E/DX2                !
 ! D49   D(5,6,7,23)           -60.1863         estimate D2E/DX2                !
 ! D50   D(5,6,7,24)           179.6074         estimate D2E/DX2                !
 ! D51   D(5,6,7,25)            59.3612         estimate D2E/DX2                !
 ! D52   D(21,6,7,23)           61.5768         estimate D2E/DX2                !
 ! D53   D(21,6,7,24)          -58.6295         estimate D2E/DX2                !
 ! D54   D(21,6,7,25)         -178.8757         estimate D2E/DX2                !
 ! D55   D(22,6,7,23)          178.0255         estimate D2E/DX2                !
 ! D56   D(22,6,7,24)           57.8192         estimate D2E/DX2                !
 ! D57   D(22,6,7,25)          -62.427          estimate D2E/DX2                !
 ! D58   D(3,8,9,10)           -61.8345         estimate D2E/DX2                !
 ! D59   D(3,8,9,28)           177.1338         estimate D2E/DX2                !
 ! D60   D(3,8,9,29)            62.3025         estimate D2E/DX2                !
 ! D61   D(26,8,9,10)           57.7528         estimate D2E/DX2                !
 ! D62   D(26,8,9,28)          -63.2788         estimate D2E/DX2                !
 ! D63   D(26,8,9,29)         -178.1101         estimate D2E/DX2                !
 ! D64   D(27,8,9,10)          173.9342         estimate D2E/DX2                !
 ! D65   D(27,8,9,28)           52.9026         estimate D2E/DX2                !
 ! D66   D(27,8,9,29)          -61.9287         estimate D2E/DX2                !
 ! D67   D(8,9,10,11)          179.3005         estimate D2E/DX2                !
 ! D68   D(8,9,10,30)           57.3043         estimate D2E/DX2                !
 ! D69   D(8,9,10,31)          -58.7714         estimate D2E/DX2                !
 ! D70   D(28,9,10,11)         -60.624          estimate D2E/DX2                !
 ! D71   D(28,9,10,30)         177.3798         estimate D2E/DX2                !
 ! D72   D(28,9,10,31)          61.3041         estimate D2E/DX2                !
 ! D73   D(29,9,10,11)          55.0511         estimate D2E/DX2                !
 ! D74   D(29,9,10,30)         -66.9451         estimate D2E/DX2                !
 ! D75   D(29,9,10,31)         176.9792         estimate D2E/DX2                !
 ! D76   D(9,10,11,32)         -60.5564         estimate D2E/DX2                !
 ! D77   D(9,10,11,33)         179.3548         estimate D2E/DX2                !
 ! D78   D(9,10,11,34)          58.997          estimate D2E/DX2                !
 ! D79   D(30,10,11,32)         61.504          estimate D2E/DX2                !
 ! D80   D(30,10,11,33)        -58.5847         estimate D2E/DX2                !
 ! D81   D(30,10,11,34)       -178.9425         estimate D2E/DX2                !
 ! D82   D(31,10,11,32)        178.0378         estimate D2E/DX2                !
 ! D83   D(31,10,11,33)         57.949          estimate D2E/DX2                !
 ! D84   D(31,10,11,34)        -62.4088         estimate D2E/DX2                !
 --------------------------------------------------------------------------------
 Trust Radius=3.00D-01 FncErr=1.00D-07 GrdErr=1.00D-06 EigMax=2.50D+02 EigMin=1.00D-04
 Number of steps in this run=    210 maximum allowed number of steps=    210.
 GradGradGradGradGradGradGradGradGradGradGradGradGradGradGradGradGradGrad

                          Input orientation:                          
 ---------------------------------------------------------------------
 Center     Atomic      Atomic             Coordinates (Angstroms)
 Number     Number       Type             X           Y           Z
 ---------------------------------------------------------------------
      1          6           0       -1.364595    2.112884   -0.276257
      2          6           0       -0.135798    1.292923   -0.682624
      3          7           0       -0.030148    0.082221    0.143846
      4          6           0        1.290048   -0.077053    0.769208
      5          6           0        2.459470   -0.375143   -0.179695
      6          6           0        3.802224   -0.376478    0.557513
      7          6           0        4.976029   -0.736200   -0.357888
      8          6           0       -0.468890   -1.139871   -0.541203
      9          6           0       -1.968289   -1.183458   -0.845666
     10          6           0       -2.860427   -1.144831    0.397919
     11          6           0       -4.350472   -1.173071    0.045922
     12          8           0       -1.382832    2.277051    1.142824
     13          1           0       -2.291339    1.625518   -0.606639
     14          1           0       -1.322348    3.110846   -0.724739
     15          1           0        0.753405    1.912316   -0.520108
     16          1           0       -0.178048    1.056231   -1.756511
     17          1           0        1.212383   -0.884982    1.509188
     18          1           0        1.504534    0.843734    1.327014
     19          1           0        2.487198    0.374379   -0.983287
     20          1           0        2.310713   -1.350711   -0.660977
     21          1           0        3.755945   -1.089227    1.393045
     22          1           0        3.970419    0.613941    1.003007
     23          1           0        4.843517   -1.737636   -0.785474
     24          1           0        5.927435   -0.724942    0.186111
     25          1           0        5.054359   -0.025280   -1.189800
     26          1           0       -0.217525   -1.985611    0.111647
     27          1           0        0.086664   -1.282275   -1.484597
     28          1           0       -2.163850   -2.112272   -1.399592
     29          1           0       -2.239465   -0.365137   -1.525908
     30          1           0       -2.639174   -0.244153    0.981939
     31          1           0       -2.612696   -2.000794    1.041211
     32          1           0       -4.620999   -0.304814   -0.568026
     33          1           0       -4.975437   -1.156396    0.946180
     34          1           0       -4.602992   -2.075973   -0.524066
     35          1           0       -1.106083    1.406762    1.479704
 ---------------------------------------------------------------------
                    Distance matrix (angstroms):
                    1          2          3          4          5
     1  C    0.000000
     2  C    1.532127   0.000000
     3  N    2.465933   1.469699   0.000000
     4  C    3.596658   2.453097   1.469477   0.000000
     5  C    4.563230   3.125827   2.551873   1.535194   0.000000
     6  C    5.795525   4.453410   3.881830   2.538799   1.531818
     7  C    6.951795   5.509407   5.097387   3.910406   2.548566
     8  C    3.384213   2.459560   1.468092   2.437339   3.048079
     9  C    3.399198   3.084975   2.517432   3.801145   4.549938
    10  C    3.647565   3.812325   3.095269   4.301680   5.406233
    11  C    4.451603   4.937144   4.500061   5.791361   6.860240
    12  O    1.428662   2.419890   2.764958   3.581296   4.852471
    13  H    1.097968   2.182373   2.838658   4.197385   5.172534
    14  H    1.094920   2.171295   3.405407   4.383970   5.172170
    15  H    2.141405   1.095783   2.098580   2.430619   2.873849
    16  H    2.171535   1.100473   2.140543   3.133511   3.389938
    17  H    4.337721   3.371187   2.084113   1.098341   2.160437
    18  H    3.523225   2.632699   2.082075   1.097725   2.160494
    19  H    4.284694   2.795394   2.773593   2.169838   1.099233
    20  H    5.064819   3.602039   2.860186   2.170113   1.097950
    21  H    6.265781   5.012854   4.155393   2.737575   2.159693
    22  H    5.687330   4.490366   4.126187   2.777863   2.158712
    23  H    7.323009   5.829960   5.284707   4.219208   2.811945
    24  H    7.838415   6.448975   6.012163   4.718594   3.504706
    25  H    6.827099   5.378905   5.257602   4.243870   2.806451
    26  H    4.273629   3.374364   2.076554   2.519475   3.137640
    27  H    3.885016   2.706344   2.127750   2.824947   2.855847
    28  H    4.444394   4.027703   3.427927   4.557984   5.087323
    29  H    2.909916   2.808150   2.805225   4.219954   4.887983
    30  H    2.960276   3.376428   2.759698   3.938523   5.230938
    31  H    4.496201   4.467125   3.437116   4.359608   5.464450
    32  H    4.066271   4.762660   4.661809   6.064696   7.091458
    33  H    5.022024   5.663416   5.160794   6.360236   7.560144
    34  H    5.300486   5.597360   5.100472   6.355798   7.272536
    35  H    1.910192   2.372778   2.167156   2.906537   4.317633
                    6          7          8          9         10
     6  C    0.000000
     7  C    1.531397   0.000000
     8  C    4.475753   5.462938   0.000000
     9  C    5.993242   6.975781   1.530619   0.000000
    10  C    6.708708   7.883418   2.569324   1.530982   0.000000
    11  C    8.207481   9.345456   3.925876   2.543587   1.531317
    12  O    5.853940   7.194924   3.917473   4.033854   3.800980
    13  H    6.518800   7.645537   3.312549   2.837577   3.001305
    14  H    6.329838   7.389445   4.339432   4.344296   4.662278
    15  H    3.961710   4.987134   3.287901   4.134903   4.821691
    16  H    4.821818   5.633246   2.526742   3.008456   4.084287
    17  H    2.805627   4.203944   2.663785   3.968765   4.229684
    18  H    2.713011   4.169696   3.364420   4.570617   4.885744
    19  H    2.160357   2.796209   3.350649   4.721987   5.728248
    20  H    2.158345   2.751981   2.790160   4.286250   5.282456
    21  H    1.099212   2.163100   4.646838   6.147158   6.691020
    22  H    1.098947   2.164756   5.016762   6.474294   7.079539
    23  H    2.177305   1.096934   5.351510   6.834576   7.816815
    24  H    2.185381   1.096009   6.450901   7.976043   8.800438
    25  H    2.178138   1.097096   5.671796   7.125826   8.149730
    26  H    4.352757   5.362322   1.097577   2.150598   2.788153
    27  H    4.335443   5.047134   1.104043   2.154258   3.499729
    28  H    6.514391   7.345516   2.134312   1.098988   2.156897
    29  H    6.390836   7.318833   2.169054   1.098142   2.166708
    30  H    6.456722   7.747810   2.798643   2.161601   1.096016
    31  H    6.635026   7.819554   2.800202   2.154902   1.099031
    32  H    8.498392   9.609016   4.235333   2.808197   2.176761
    33  H    8.820809  10.045339   4.745687   3.500626   2.184946
    34  H    8.643250   9.673689   4.238795   2.800299   2.180279
    35  H    5.303005   6.705305   3.312917   3.586082   3.280032
                   11         12         13         14         15
    11  C    0.000000
    12  O    4.681178   0.000000
    13  H    3.535246   2.076175   0.000000
    14  H    5.302396   2.046134   1.777383   0.000000
    15  H    5.990790   2.731645   3.059446   2.405639   0.000000
    16  H    5.062378   3.368687   2.472305   2.568156   1.768949
    17  H    5.759297   4.107045   4.801604   5.232775   3.486198
    18  H    6.323748   3.228809   4.331149   4.164223   2.262282
    19  H    7.085733   4.808081   4.953951   4.697632   2.363435
    20  H    6.700944   5.482394   5.480856   5.754016   3.618342
    21  H    8.218015   6.148290   6.923743   6.922043   4.656679
    22  H    8.564266   5.607386   6.543995   6.101887   3.788778
    23  H    9.248750   7.655291   7.889801   7.844066   5.488314
    24  H   10.288628   7.960357   8.584951   8.252411   5.850168
    25  H    9.554857   7.223524   7.551457   7.121374   4.764554
    26  H    4.212576   4.537792   4.225742   5.281482   4.066406
    27  H    4.694954   4.661713   3.857587   4.675705   3.402969
    28  H    2.784407   5.132254   3.823101   5.333340   5.047889
    29  H    2.753136   3.851897   2.193274   3.683128   3.893032
    30  H    2.160453   2.821480   2.477951   3.987832   4.291398
    31  H    2.166931   4.452286   3.996100   5.559896   5.392660
    32  H    1.097264   4.480933   3.025721   4.751041   5.813964
    33  H    1.096049   4.973333   4.165894   5.860579   6.662329
    34  H    1.097217   5.665402   4.364814   6.140521   6.678133
    35  H    4.386039   0.973386   2.409464   2.794681   2.777144
                   16         17         18         19         20
    16  H    0.000000
    17  H    4.045541   0.000000
    18  H    3.519142   1.762667   0.000000
    19  H    2.857680   3.069784   2.554097   0.000000
    20  H    3.631459   2.476460   3.068814   1.763794   0.000000
    21  H    5.477134   2.554391   2.968088   3.065748   2.525090
    22  H    5.002034   3.179583   2.497674   2.490521   3.063221
    23  H    5.827926   4.379227   4.719628   3.170485   2.565210
    24  H    6.650059   4.899782   4.829541   3.796213   3.766939
    25  H    5.372980   4.773301   4.437431   2.606279   3.092574
    26  H    3.569927   2.282355   3.528143   3.752861   2.718830
    27  H    2.369097   3.223016   3.799397   2.959456   2.372641
    28  H    3.756356   4.622358   5.443288   5.290463   4.598613
    29  H    2.514538   4.625722   4.859841   4.814838   4.735355
    30  H    3.904772   3.939942   4.298010   5.524888   5.331512
    31  H    4.806263   4.011891   5.012445   5.979044   5.249763
    32  H    4.796327   6.219305   6.514022   7.152637   7.010789
    33  H    5.934239   6.219305   6.792317   7.858565   7.463826
    34  H    5.559654   6.274646   7.018052   7.515711   6.952990
    35  H    3.384850   3.260099   2.675002   4.477031   4.884739
                   21         22         23         24         25
    21  H    0.000000
    22  H    1.760371   0.000000
    23  H    2.519761   3.080727   0.000000
    24  H    2.510929   2.507956   1.773248   0.000000
    25  H    3.080414   2.528227   1.772032   1.773392   0.000000
    26  H    4.270123   5.009098   5.145917   6.273386   5.773165
    27  H    4.667088   4.986718   4.829469   6.100532   5.132732
    28  H    6.624909   7.129795   7.044195   8.361103   7.516788
    29  H    6.707424   6.776184   7.252629   8.352169   7.309470
    30  H    6.463799   6.665094   7.832298   8.616919   7.997175
    31  H    6.443162   7.083481   7.681220   8.677145   8.225801
    32  H    8.639114   8.782068   9.574827  10.583699   9.699345
    33  H    8.743067   9.119521   9.987408  10.937846  10.316911
    34  H    8.632544   9.114328   9.456180  10.640467   9.895099
    35  H    5.465966   5.160104   7.100423   7.462434   6.864987
                   26         27         28         29         30
    26  H    0.000000
    27  H    1.770652   0.000000
    28  H    2.467401   2.400195   0.000000
    29  H    3.065251   2.500746   1.753327   0.000000
    30  H    3.107164   3.819907   3.063901   2.542380   0.000000
    31  H    2.569273   3.765969   2.484232   3.066720   1.757840
    32  H    4.762102   4.894652   3.161642   2.567660   2.516685
    33  H    4.901201   5.616884   3.784357   3.771319   2.508305
    34  H    4.432225   4.852366   2.591771   3.084949   3.078993
    35  H    3.764215   4.176200   4.668278   3.668499   2.307306
                   31         32         33         34         35
    31  H    0.000000
    32  H    3.082089   0.000000
    33  H    2.510892   1.773031   0.000000
    34  H    2.533184   1.771796   1.773686   0.000000
    35  H    3.751480   4.413313   4.671866   5.326624   0.000000
 Stoichiometry    C10H23NO(1-,2)
 Framework group  C1[X(C10H23NO)]
 Deg. of freedom    99
 Full point group                 C1      NOp   1
 Largest Abelian subgroup         C1      NOp   1
 Largest concise Abelian subgroup C1      NOp   1
                         Standard orientation:                         
 ---------------------------------------------------------------------
 Center     Atomic      Atomic             Coordinates (Angstroms)
 Number     Number       Type             X           Y           Z
 ---------------------------------------------------------------------
      1          6           0        1.399227    2.058879    0.632724
      2          6           0        0.157857    1.202258    0.902196
      3          7           0        0.031390    0.147620   -0.113560
      4          6           0       -1.292105    0.115372   -0.751277
      5          6           0       -2.464863   -0.317837    0.139671
      6          6           0       -3.808509   -0.175413   -0.581993
      7          6           0       -4.986698   -0.663750    0.265695
      8          6           0        0.451204   -1.178119    0.357043
      9          6           0        1.950129   -1.295361    0.643876
     10          6           0        2.841009   -1.064609   -0.579640
     11          6           0        4.330898   -1.174476   -0.243345
     12          8           0        1.418111    2.456369   -0.739398
     13          1           0        2.318405    1.508813    0.873707
     14          1           0        1.373827    2.968936    1.241000
     15          1           0       -0.721401    1.853998    0.848531
     16          1           0        0.197785    0.789693    1.921626
     17          1           0       -1.228620   -0.559418   -1.615557
     18          1           0       -1.492405    1.119346   -1.147405
     19          1           0       -2.479277    0.288005    1.056765
     20          1           0       -2.331283   -1.362064    0.451505
     21          1           0       -3.774995   -0.739980   -1.524547
     22          1           0       -3.961233    0.877813   -0.855989
     23          1           0       -4.869855   -1.724299    0.520347
     24          1           0       -5.938568   -0.547205   -0.264961
     25          1           0       -5.052293   -0.099879    1.204506
     26          1           0        0.185213   -1.899484   -0.426255
     27          1           0       -0.105248   -1.466595    1.265917
     28          1           0        2.131371   -2.306306    1.034921
     29          1           0        2.235523   -0.605896    1.449546
     30          1           0        2.633579   -0.075998   -1.004931
     31          1           0        2.578499   -1.797700   -1.355226
     32          1           0        4.616358   -0.424744    0.505256
     33          1           0        4.954771   -1.018229   -1.130865
     34          1           0        4.569534   -2.163441    0.167612
     35          1           0        1.126790    1.658671   -1.215098
 ---------------------------------------------------------------------
 Rotational constants (GHZ):           1.4029461           0.3898323           0.3351922
 Standard basis: 6-31+G(d,p) (6D, 7F)
 There are   343 symmetry adapted cartesian basis functions of A   symmetry.
 There are   343 symmetry adapted basis functions of A   symmetry.
   343 basis functions,   545 primitive gaussians,   343 cartesian basis functions
    50 alpha electrons       49 beta electrons
       nuclear repulsion energy       773.8865665340 Hartrees.
 NAtoms=   35 NActive=   35 NUniq=   35 SFac= 1.00D+00 NAtFMM=   60 NAOKFM=F Big=F
 Integral buffers will be    131072 words long.
 Raffenetti 2 integral format.
 Two-electron integral symmetry is turned on.
 Nuclear repulsion after empirical dispersion term =      773.8583930846 Hartrees.
 ------------------------------------------------------------------------------
 Polarizable Continuum Model (PCM)
 =================================
 Model                : PCM.
 Atomic radii         : SMD-Coulomb.
 Polarization charges : Total charges.
 Charge compensation  : None.
 Solution method      : On-the-fly selection.
 Cavity type          : VdW (van der Waals Surface) (Alpha=1.000).
 Cavity algorithm     : GePol (No added spheres)
                        Default sphere list used, NSphG=   35.
                        Lebedev-Laikov grids with approx.  5.0 points / Ang**2.
                        Smoothing algorithm: York/Karplus (Gamma=1.0000).
                        Polarization charges: spherical gaussians, with
                                              point-specific exponents (IZeta= 3).
                        Self-potential: point-specific (ISelfS= 7).
                        Self-field    : sphere-specific E.n sum rule (ISelfD= 2).
 1st derivatives      : Analytical E(r).r(x)/FMM algorithm (CHGder, D1EAlg=3).
                        Cavity 1st derivative terms included.
 Solvent              : Acetonitrile, Eps=  35.688000 Eps(inf)=   1.806874
 ------------------------------------------------------------------------------
 ------------------------------------------------------------------------------
 Atomic radii for non-electrostatic terms: SMD-CDS.
 ------------------------------------------------------------------------------
 Nuclear repulsion after PCM non-electrostatic terms =      773.8538625584 Hartrees.
 One-electron integrals computed using PRISM.
 NBasis=   343 RedAO= T EigKep=  8.69D-06  NBF=   343
 NBsUse=   343 1.00D-06 EigRej= -1.00D+00 NBFU=   343
 ExpMin= 4.38D-02 ExpMax= 5.48D+03 ExpMxC= 8.25D+02 IAcc=3 IRadAn=         5 AccDes= 0.00D+00
 Harris functional with IExCor= 4639 and IRadAn=       5 diagonalized for initial guess.
 HarFok:  IExCor= 4639 AccDes= 0.00D+00 IRadAn=         5 IDoV= 1 UseB2=F ITyADJ=14
 ICtDFT=  3500011 ScaDFX=  1.000000  1.000000  1.000000  1.000000
 FoFCou: FMM=F IPFlag=           0 FMFlag=      100000 FMFlg1=           0
         NFxFlg=           0 DoJE=T BraDBF=F KetDBF=T FulRan=T
         wScrn=  0.000000 ICntrl=       500 IOpCl=  0 I1Cent=   200000004 NGrid=           0
         NMat0=    1 NMatS0=      1 NMatT0=    0 NMatD0=    1 NMtDS0=    0 NMtDT0=    0
 Petite list used in FoFCou.
 Initial guess <Sx>= 0.0000 <Sy>= 0.0000 <Sz>= 0.5000 <S**2>= 0.7500 S= 0.5000
 Requested convergence on RMS density matrix=1.00D-08 within 500 cycles.
 Requested convergence on MAX density matrix=1.00D-06.
 Requested convergence on             energy=1.00D-06.
 No special actions if energy rises.
 Inv3:  Mode=1 IEnd=    15980592.
 Iteration    1 A*A^-1 deviation from unit magnitude is 5.33D-15 for   2280.
 Iteration    1 A*A^-1 deviation from orthogonality  is 2.69D-15 for   1204    894.
 Iteration    1 A^-1*A deviation from unit magnitude is 5.33D-15 for   2280.
 Iteration    1 A^-1*A deviation from orthogonality  is 1.85D-15 for   1499    296.
 Restarting incremental Fock formation.
 Restarting incremental Fock formation.
 Error on total polarization charges =  0.19196
 SCF Done:  E(UwB97XD) =  -524.786980866     A.U. after   41 cycles
            NFock= 41  Conv=0.45D-08     -V/T= 2.0097
 <Sx>= 0.0000 <Sy>= 0.0000 <Sz>= 0.5000 <S**2>= 0.7505 S= 0.5002
 <L.S>= 0.000000000000E+00
 SMD-CDS (non-electrostatic) energy       (kcal/mol) =      -2.84
 (included in total energy above)
 Annihilation of the first spin contaminant:
 S**2 before annihilation     0.7505,   after     0.7500

 **********************************************************************

            Population analysis using the SCF Density.

 **********************************************************************

 Orbital symmetries:
 Alpha Orbitals:
       Occupied  (A) (A) (A) (A) (A) (A) (A) (A) (A) (A) (A) (A)
                 (A) (A) (A) (A) (A) (A) (A) (A) (A) (A) (A) (A)
                 (A) (A) (A) (A) (A) (A) (A) (A) (A) (A) (A) (A)
                 (A) (A) (A) (A) (A) (A) (A) (A) (A) (A) (A) (A)
                 (A) (A)
       Virtual   (A) (A) (A) (A) (A) (A) (A) (A) (A) (A) (A) (A)
                 (A) (A) (A) (A) (A) (A) (A) (A) (A) (A) (A) (A)
                 (A) (A) (A) (A) (A) (A) (A) (A) (A) (A) (A) (A)
                 (A) (A) (A) (A) (A) (A) (A) (A) (A) (A) (A) (A)
                 (A) (A) (A) (A) (A) (A) (A) (A) (A) (A) (A) (A)
                 (A) (A) (A) (A) (A) (A) (A) (A) (A) (A) (A) (A)
                 (A) (A) (A) (A) (A) (A) (A) (A) (A) (A) (A) (A)
                 (A) (A) (A) (A) (A) (A) (A) (A) (A) (A) (A) (A)
                 (A) (A) (A) (A) (A) (A) (A) (A) (A) (A) (A) (A)
                 (A) (A) (A) (A) (A) (A) (A) (A) (A) (A) (A) (A)
                 (A) (A) (A) (A) (A) (A) (A) (A) (A) (A) (A) (A)
                 (A) (A) (A) (A) (A) (A) (A) (A) (A) (A) (A) (A)
                 (A) (A) (A) (A) (A) (A) (A) (A) (A) (A) (A) (A)
                 (A) (A) (A) (A) (A) (A) (A) (A) (A) (A) (A) (A)
                 (A) (A) (A) (A) (A) (A) (A) (A) (A) (A) (A) (A)
                 (A) (A) (A) (A) (A) (A) (A) (A) (A) (A) (A) (A)
                 (A) (A) (A) (A) (A) (A) (A) (A) (A) (A) (A) (A)
                 (A) (A) (A) (A) (A) (A) (A) (A) (A) (A) (A) (A)
                 (A) (A) (A) (A) (A) (A) (A) (A) (A) (A) (A) (A)
                 (A) (A) (A) (A) (A) (A) (A) (A) (A) (A) (A) (A)
                 (A) (A) (A) (A) (A) (A) (A) (A) (A) (A) (A) (A)
                 (A) (A) (A) (A) (A) (A) (A) (A) (A) (A) (A) (A)
                 (A) (A) (A) (A) (A) (A) (A) (A) (A) (A) (A) (A)
                 (A) (A) (A) (A) (A) (A) (A) (A) (A) (A) (A) (A)
                 (A) (A) (A) (A) (A)
 Beta  Orbitals:
       Occupied  (A) (A) (A) (A) (A) (A) (A) (A) (A) (A) (A) (A)
                 (A) (A) (A) (A) (A) (A) (A) (A) (A) (A) (A) (A)
                 (A) (A) (A) (A) (A) (A) (A) (A) (A) (A) (A) (A)
                 (A) (A) (A) (A) (A) (A) (A) (A) (A) (A) (A) (A)
                 (A)
       Virtual   (A) (A) (A) (A) (A) (A) (A) (A) (A) (A) (A) (A)
                 (A) (A) (A) (A) (A) (A) (A) (A) (A) (A) (A) (A)
                 (A) (A) (A) (A) (A) (A) (A) (A) (A) (A) (A) (A)
                 (A) (A) (A) (A) (A) (A) (A) (A) (A) (A) (A) (A)
                 (A) (A) (A) (A) (A) (A) (A) (A) (A) (A) (A) (A)
                 (A) (A) (A) (A) (A) (A) (A) (A) (A) (A) (A) (A)
                 (A) (A) (A) (A) (A) (A) (A) (A) (A) (A) (A) (A)
                 (A) (A) (A) (A) (A) (A) (A) (A) (A) (A) (A) (A)
                 (A) (A) (A) (A) (A) (A) (A) (A) (A) (A) (A) (A)
                 (A) (A) (A) (A) (A) (A) (A) (A) (A) (A) (A) (A)
                 (A) (A) (A) (A) (A) (A) (A) (A) (A) (A) (A) (A)
                 (A) (A) (A) (A) (A) (A) (A) (A) (A) (A) (A) (A)
                 (A) (A) (A) (A) (A) (A) (A) (A) (A) (A) (A) (A)
                 (A) (A) (A) (A) (A) (A) (A) (A) (A) (A) (A) (A)
                 (A) (A) (A) (A) (A) (A) (A) (A) (A) (A) (A) (A)
                 (A) (A) (A) (A) (A) (A) (A) (A) (A) (A) (A) (A)
                 (A) (A) (A) (A) (A) (A) (A) (A) (A) (A) (A) (A)
                 (A) (A) (A) (A) (A) (A) (A) (A) (A) (A) (A) (A)
                 (A) (A) (A) (A) (A) (A) (A) (A) (A) (A) (A) (A)
                 (A) (A) (A) (A) (A) (A) (A) (A) (A) (A) (A) (A)
                 (A) (A) (A) (A) (A) (A) (A) (A) (A) (A) (A) (A)
                 (A) (A) (A) (A) (A) (A) (A) (A) (A) (A) (A) (A)
                 (A) (A) (A) (A) (A) (A) (A) (A) (A) (A) (A) (A)
                 (A) (A) (A) (A) (A) (A) (A) (A) (A) (A) (A) (A)
                 (A) (A) (A) (A) (A) (A)
 The electronic state is 2-A.
 Alpha  occ. eigenvalues --  -19.26227 -14.43499 -10.32530 -10.30577 -10.30334
 Alpha  occ. eigenvalues --  -10.29225 -10.28112 -10.27694 -10.27399 -10.27336
 Alpha  occ. eigenvalues --  -10.27195 -10.27183  -1.10887  -1.00683  -0.88271
 Alpha  occ. eigenvalues --   -0.87189  -0.82660  -0.81157  -0.77472  -0.71703
 Alpha  occ. eigenvalues --   -0.71308  -0.67412  -0.66175  -0.63096  -0.58499
 Alpha  occ. eigenvalues --   -0.55557  -0.55197  -0.53593  -0.52738  -0.51944
 Alpha  occ. eigenvalues --   -0.50254  -0.49491  -0.49125  -0.48431  -0.46277
 Alpha  occ. eigenvalues --   -0.45552  -0.44768  -0.43361  -0.42077  -0.41705
 Alpha  occ. eigenvalues --   -0.41231  -0.40187  -0.39975  -0.39494  -0.39006
 Alpha  occ. eigenvalues --   -0.38594  -0.38332  -0.34622  -0.28182  -0.06787
 Alpha virt. eigenvalues --    0.07834   0.08387   0.08625   0.09538   0.10109
 Alpha virt. eigenvalues --    0.10476   0.10931   0.11616   0.11720   0.12381
 Alpha virt. eigenvalues --    0.13342   0.14264   0.14456   0.14595   0.15196
 Alpha virt. eigenvalues --    0.15838   0.16126   0.16708   0.16984   0.17507
 Alpha virt. eigenvalues --    0.18124   0.18613   0.19220   0.19572   0.20054
 Alpha virt. eigenvalues --    0.20545   0.21415   0.21906   0.22994   0.23266
 Alpha virt. eigenvalues --    0.23528   0.24578   0.24944   0.25253   0.25923
 Alpha virt. eigenvalues --    0.26633   0.27288   0.27898   0.28110   0.28792
 Alpha virt. eigenvalues --    0.29356   0.29831   0.30149   0.30518   0.30619
 Alpha virt. eigenvalues --    0.31281   0.31907   0.32427   0.32734   0.33247
 Alpha virt. eigenvalues --    0.34178   0.34593   0.35169   0.35787   0.36277
 Alpha virt. eigenvalues --    0.36324   0.37004   0.37218   0.37507   0.38324
 Alpha virt. eigenvalues --    0.38844   0.39114   0.39463   0.39815   0.40558
 Alpha virt. eigenvalues --    0.41223   0.42097   0.43074   0.43879   0.44251
 Alpha virt. eigenvalues --    0.45031   0.45896   0.46805   0.47468   0.48237
 Alpha virt. eigenvalues --    0.49610   0.51156   0.52407   0.54660   0.56146
 Alpha virt. eigenvalues --    0.56964   0.70996   0.72149   0.73524   0.74583
 Alpha virt. eigenvalues --    0.75622   0.76120   0.77032   0.77559   0.78279
 Alpha virt. eigenvalues --    0.79280   0.79832   0.81161   0.81385   0.82083
 Alpha virt. eigenvalues --    0.84135   0.84985   0.85313   0.87866   0.88144
 Alpha virt. eigenvalues --    0.89249   0.92283   0.92835   0.95255   0.97158
 Alpha virt. eigenvalues --    0.98454   0.98806   1.00719   1.01932   1.02842
 Alpha virt. eigenvalues --    1.03998   1.06067   1.06882   1.07492   1.08553
 Alpha virt. eigenvalues --    1.08879   1.10359   1.11273   1.12085   1.12598
 Alpha virt. eigenvalues --    1.14980   1.15768   1.16283   1.18284   1.18799
 Alpha virt. eigenvalues --    1.19722   1.21237   1.21572   1.22753   1.23288
 Alpha virt. eigenvalues --    1.23729   1.24793   1.25588   1.26253   1.27641
 Alpha virt. eigenvalues --    1.28044   1.30591   1.32144   1.33771   1.36424
 Alpha virt. eigenvalues --    1.39630   1.41087   1.43038   1.45523   1.46453
 Alpha virt. eigenvalues --    1.49365   1.50687   1.51685   1.54423   1.55729
 Alpha virt. eigenvalues --    1.58876   1.60251   1.61936   1.64796   1.66940
 Alpha virt. eigenvalues --    1.70135   1.70603   1.74115   1.75800   1.76852
 Alpha virt. eigenvalues --    1.78833   1.79375   1.79594   1.81364   1.85205
 Alpha virt. eigenvalues --    1.88971   1.92292   1.93861   1.94789   1.96304
 Alpha virt. eigenvalues --    1.99011   1.99818   2.02686   2.03444   2.04036
 Alpha virt. eigenvalues --    2.05433   2.06215   2.06343   2.07805   2.10480
 Alpha virt. eigenvalues --    2.12427   2.13939   2.15206   2.15256   2.15555
 Alpha virt. eigenvalues --    2.16542   2.20457   2.20717   2.21384   2.22622
 Alpha virt. eigenvalues --    2.23097   2.23679   2.24092   2.25433   2.25839
 Alpha virt. eigenvalues --    2.27291   2.28043   2.29119   2.30706   2.33038
 Alpha virt. eigenvalues --    2.34533   2.36362   2.37672   2.38622   2.40073
 Alpha virt. eigenvalues --    2.40983   2.41333   2.42295   2.43280   2.45229
 Alpha virt. eigenvalues --    2.45782   2.47152   2.50575   2.53522   2.54873
 Alpha virt. eigenvalues --    2.56229   2.56545   2.59322   2.60679   2.62256
 Alpha virt. eigenvalues --    2.63786   2.65601   2.67541   2.68986   2.70854
 Alpha virt. eigenvalues --    2.75140   2.77279   2.77669   2.78802   2.80263
 Alpha virt. eigenvalues --    2.82239   2.83819   2.84540   2.85120   2.86072
 Alpha virt. eigenvalues --    2.87536   2.87993   2.90206   2.90427   2.92662
 Alpha virt. eigenvalues --    2.93857   2.95172   2.95694   2.96963   2.97209
 Alpha virt. eigenvalues --    2.99686   3.00745   3.01714   3.02633   3.03222
 Alpha virt. eigenvalues --    3.04123   3.05256   3.07501   3.08465   3.08644
 Alpha virt. eigenvalues --    3.13246   3.14658   3.19634   3.35275   3.36618
 Alpha virt. eigenvalues --    3.42409   3.43727   3.44092   3.45211   3.46186
 Alpha virt. eigenvalues --    3.46572   3.47788   3.50498   3.51512   3.53092
 Alpha virt. eigenvalues --    3.58215   3.59914   3.60278   3.60754   3.61752
 Alpha virt. eigenvalues --    3.66341   3.66965   3.68292   3.71175   3.72638
 Alpha virt. eigenvalues --    3.74110   4.39246   4.42789   4.49551   4.49875
 Alpha virt. eigenvalues --    4.61997   4.63248   4.65157   4.72288   4.75220
 Alpha virt. eigenvalues --    4.84170   4.86771   4.90787
  Beta  occ. eigenvalues --  -19.26226 -14.43490 -10.32528 -10.30570 -10.30329
  Beta  occ. eigenvalues --  -10.29066 -10.28111 -10.27690 -10.27394 -10.27334
  Beta  occ. eigenvalues --  -10.27151 -10.27131  -1.10883  -1.00620  -0.88214
  Beta  occ. eigenvalues --   -0.87141  -0.82628  -0.81074  -0.77420  -0.71587
  Beta  occ. eigenvalues --   -0.71276  -0.67364  -0.66102  -0.62938  -0.58473
  Beta  occ. eigenvalues --   -0.55509  -0.55142  -0.53567  -0.52659  -0.51869
  Beta  occ. eigenvalues --   -0.50228  -0.49437  -0.49078  -0.48378  -0.46241
  Beta  occ. eigenvalues --   -0.45484  -0.44730  -0.43320  -0.42031  -0.41669
  Beta  occ. eigenvalues --   -0.41219  -0.40133  -0.39954  -0.39446  -0.38897
  Beta  occ. eigenvalues --   -0.38545  -0.38278  -0.34614  -0.28111
  Beta virt. eigenvalues --    0.08480   0.09020   0.09141   0.09933   0.10738
  Beta virt. eigenvalues --    0.10879   0.11474   0.12683   0.12885   0.13180
  Beta virt. eigenvalues --    0.13698   0.13878   0.14823   0.15132   0.15552
  Beta virt. eigenvalues --    0.16136   0.17049   0.17364   0.17668   0.18285
  Beta virt. eigenvalues --    0.18847   0.18933   0.19713   0.19968   0.20619
  Beta virt. eigenvalues --    0.20967   0.21907   0.22701   0.23180   0.24223
  Beta virt. eigenvalues --    0.24890   0.25047   0.25298   0.25919   0.26289
  Beta virt. eigenvalues --    0.26990   0.27553   0.28291   0.28363   0.29358
  Beta virt. eigenvalues --    0.29883   0.30133   0.30589   0.30785   0.31035
  Beta virt. eigenvalues --    0.31970   0.32310   0.32677   0.33166   0.34088
  Beta virt. eigenvalues --    0.34473   0.35479   0.35662   0.36012   0.36160
  Beta virt. eigenvalues --    0.36739   0.37337   0.37808   0.38375   0.38725
  Beta virt. eigenvalues --    0.39133   0.39218   0.39911   0.40424   0.41136
  Beta virt. eigenvalues --    0.41509   0.42094   0.43432   0.44148   0.44663
  Beta virt. eigenvalues --    0.44821   0.46301   0.46479   0.47458   0.48277
  Beta virt. eigenvalues --    0.48779   0.50628   0.51729   0.52919   0.54882
  Beta virt. eigenvalues --    0.56504   0.57169   0.71291   0.72746   0.73853
  Beta virt. eigenvalues --    0.74723   0.75957   0.76331   0.77396   0.77850
  Beta virt. eigenvalues --    0.78520   0.79441   0.80121   0.81335   0.81651
  Beta virt. eigenvalues --    0.82196   0.84217   0.85125   0.85463   0.88023
  Beta virt. eigenvalues --    0.88403   0.89450   0.92358   0.93052   0.95386
  Beta virt. eigenvalues --    0.97254   0.98596   0.98909   1.00843   1.02095
  Beta virt. eigenvalues --    1.03091   1.04126   1.06151   1.07173   1.07737
  Beta virt. eigenvalues --    1.08671   1.09035   1.10612   1.11596   1.12311
  Beta virt. eigenvalues --    1.12818   1.15273   1.16018   1.16421   1.18430
  Beta virt. eigenvalues --    1.19065   1.19806   1.21409   1.21801   1.23027
  Beta virt. eigenvalues --    1.23432   1.23946   1.24996   1.25749   1.26466
  Beta virt. eigenvalues --    1.27920   1.28309   1.30816   1.32313   1.33875
  Beta virt. eigenvalues --    1.36506   1.39698   1.41149   1.43132   1.45626
  Beta virt. eigenvalues --    1.46498   1.49428   1.50731   1.51727   1.54480
  Beta virt. eigenvalues --    1.55768   1.58948   1.60316   1.62002   1.64859
  Beta virt. eigenvalues --    1.66980   1.70188   1.70628   1.74160   1.75852
  Beta virt. eigenvalues --    1.76878   1.78866   1.79401   1.79613   1.81409
  Beta virt. eigenvalues --    1.85248   1.88999   1.92315   1.93886   1.94892
  Beta virt. eigenvalues --    1.96373   1.99045   1.99847   2.02731   2.03536
  Beta virt. eigenvalues --    2.04105   2.05494   2.06300   2.06402   2.07868
  Beta virt. eigenvalues --    2.10517   2.12453   2.14045   2.15233   2.15285
  Beta virt. eigenvalues --    2.15585   2.16573   2.20501   2.20755   2.21421
  Beta virt. eigenvalues --    2.22686   2.23128   2.23708   2.24122   2.25476
  Beta virt. eigenvalues --    2.25879   2.27378   2.28112   2.29186   2.30732
  Beta virt. eigenvalues --    2.33048   2.34584   2.36381   2.37705   2.38645
  Beta virt. eigenvalues --    2.40091   2.40998   2.41352   2.42321   2.43293
  Beta virt. eigenvalues --    2.45245   2.45829   2.47170   2.50597   2.53574
  Beta virt. eigenvalues --    2.54908   2.56273   2.56584   2.59328   2.60707
  Beta virt. eigenvalues --    2.62283   2.63807   2.65623   2.67547   2.68993
  Beta virt. eigenvalues --    2.70887   2.75144   2.77305   2.77693   2.78844
  Beta virt. eigenvalues --    2.80277   2.82262   2.83863   2.84550   2.85149
  Beta virt. eigenvalues --    2.86085   2.87568   2.88059   2.90221   2.90474
  Beta virt. eigenvalues --    2.92672   2.93899   2.95194   2.95717   2.96985
  Beta virt. eigenvalues --    2.97232   2.99705   3.00759   3.01732   3.02647
  Beta virt. eigenvalues --    3.03250   3.04146   3.05281   3.07514   3.08492
  Beta virt. eigenvalues --    3.08670   3.13289   3.14740   3.19651   3.35299
  Beta virt. eigenvalues --    3.36633   3.42443   3.43766   3.44177   3.45246
  Beta virt. eigenvalues --    3.46259   3.46644   3.47824   3.50576   3.51586
  Beta virt. eigenvalues --    3.53153   3.58249   3.59980   3.60294   3.60777
  Beta virt. eigenvalues --    3.61833   3.66374   3.67036   3.68329   3.71218
  Beta virt. eigenvalues --    3.72713   3.74126   4.39269   4.42839   4.49598
  Beta virt. eigenvalues --    4.49924   4.62050   4.63297   4.65228   4.72309
  Beta virt. eigenvalues --    4.75328   4.84216   4.86884   4.90898
          Condensed to atoms (all electrons):
               1          2          3          4          5          6
     1  C    6.638908   0.686056   0.884055   3.785398  -2.909329   0.218146
     2  C    0.686056   9.249785   1.909265  10.057408  -8.606868   0.987059
     3  N    0.884055   1.909265  10.338562   3.930066  -2.330875  -0.068522
     4  C    3.785398  10.057408   3.930066  54.136394 -42.670839   6.562637
     5  C   -2.909329  -8.606868  -2.330875 -42.670839  44.702991  -6.295120
     6  C    0.218146   0.987059  -0.068522   6.562637  -6.295120   7.419174
     7  C   -0.093180  -0.517679   0.044229  -3.735997   3.654301  -1.419336
     8  C   -7.123970 -14.626068 -14.995149 -44.267707  32.802824  -2.465005
     9  C    1.094330   2.522894   2.310681   7.208271  -5.817328   0.452631
    10  C    1.269082   2.946878   3.663230   8.628042  -5.981486   0.376895
    11  C    0.710259   1.119326   2.018274   2.428634  -1.359968   0.050064
    12  O    0.139693  -0.120397  -0.065335  -0.224501   0.139021  -0.009267
    13  H    0.470429  -0.084074   0.024935   0.023950  -0.014537   0.000388
    14  H    0.453266  -0.087336   0.005076  -0.011488   0.007627  -0.000506
    15  H   -0.024897   0.419817  -0.054922   0.025259  -0.017108  -0.000218
    16  H   -0.045330   0.312776  -0.082324  -0.135408   0.113709  -0.004458
    17  H    0.008089   0.042455  -0.043808   0.649991  -0.248586   0.007708
    18  H   -0.011339   0.003746  -0.053976   0.455201  -0.095398   0.018869
    19  H    0.012734   0.050555   0.003231   0.168038   0.158920   0.028494
    20  H    0.001563   0.049309   0.003105   0.200939   0.130060   0.045240
    21  H    0.000157  -0.003755  -0.000190  -0.021594  -0.039072   0.390310
    22  H   -0.001546  -0.002160  -0.001159  -0.061082  -0.015402   0.385358
    23  H   -0.000077  -0.001162  -0.000001  -0.022624   0.018772  -0.100003
    24  H   -0.000002   0.000055   0.000008  -0.001453   0.018849  -0.070255
    25  H   -0.000057  -0.001871  -0.000042  -0.011577   0.010085  -0.090573
    26  H    0.014527   0.092090   0.047930   0.282714  -0.228594   0.009463
    27  H    0.020053   0.081428   0.028653   0.204284  -0.175538   0.014539
    28  H    0.005377   0.021190   0.034620   0.021147  -0.015811   0.000369
    29  H    0.022393   0.092226   0.093842   0.094997  -0.056850   0.001338
    30  H   -0.010673  -0.032520  -0.034302  -0.050667   0.024424  -0.000710
    31  H    0.000341   0.002573  -0.003937  -0.007764   0.000832  -0.000090
    32  H    0.000959  -0.003289  -0.004319  -0.002486   0.000706  -0.000009
    33  H    0.000453  -0.001329  -0.000532  -0.000819   0.000204  -0.000003
    34  H   -0.000591  -0.001020  -0.001303  -0.001021   0.000358  -0.000006
    35  H    0.016733  -0.096882   0.053614  -0.066799   0.041753  -0.001718
               7          8          9         10         11         12
     1  C   -0.093180  -7.123970   1.094330   1.269082   0.710259   0.139693
     2  C   -0.517679 -14.626068   2.522894   2.946878   1.119326  -0.120397
     3  N    0.044229 -14.995149   2.310681   3.663230   2.018274  -0.065335
     4  C   -3.735997 -44.267707   7.208271   8.628042   2.428634  -0.224501
     5  C    3.654301  32.802824  -5.817328  -5.981486  -1.359968   0.139021
     6  C   -1.419336  -2.465005   0.452631   0.376895   0.050064  -0.009267
     7  C    6.713914   0.970765  -0.216929  -0.135754  -0.013858   0.002125
     8  C    0.970765 109.079955 -15.348772 -23.076378 -15.867406   0.401534
     9  C   -0.216929 -15.348772  10.555706   3.747970  -0.432727  -0.032262
    10  C   -0.135754 -23.076378   3.747970  13.407778   1.066867  -0.090888
    11  C   -0.013858 -15.867406  -0.432727   1.066867  15.948044  -0.028080
    12  O    0.002125   0.401534  -0.032262  -0.090888  -0.028080   8.321334
    13  H   -0.000063  -0.115701   0.004171   0.031660   0.021636  -0.060342
    14  H    0.000078   0.032141  -0.001967  -0.005739  -0.002515  -0.056138
    15  H    0.000626  -0.027865   0.001454   0.003582   0.000759  -0.001464
    16  H    0.003092   0.237952  -0.059282  -0.032734  -0.008625   0.004547
    17  H   -0.013650  -0.141531   0.018373   0.028784   0.003556   0.000062
    18  H   -0.002435  -0.004256  -0.002889   0.003720   0.000100   0.002434
    19  H   -0.044964  -0.084804   0.021762   0.007931   0.000616  -0.000350
    20  H   -0.030298  -0.117934   0.030305   0.017746   0.001312  -0.000018
    21  H   -0.006830   0.004382   0.000661  -0.000352  -0.000008  -0.000002
    22  H    0.018625   0.001684  -0.000602  -0.000348  -0.000014   0.000020
    23  H    0.464218  -0.000917  -0.000714  -0.000134  -0.000004   0.000000
    24  H    0.418423  -0.000271  -0.000017   0.000003   0.000000   0.000000
    25  H    0.451209   0.001330  -0.000043  -0.000047  -0.000001   0.000000
    26  H   -0.004985  -0.256262   0.155723   0.154393   0.055823  -0.000144
    27  H   -0.004356  -0.142319   0.138851   0.114448   0.025123  -0.001056
    28  H   -0.000119  -0.236207   0.413211   0.027549   0.056279  -0.000114
    29  H   -0.000325  -0.764284   0.578810   0.082514   0.153889  -0.000807
    30  H    0.000092   0.289612  -0.025738   0.300354  -0.145489   0.003374
    31  H   -0.000006   0.007461  -0.026056   0.344322   0.004487   0.000075
    32  H    0.000001   0.045148   0.006245  -0.083513   0.396414   0.000090
    33  H    0.000000   0.001421   0.038828  -0.078776   0.405019   0.000010
    34  H    0.000001   0.022933   0.024736  -0.068614   0.380859  -0.000009
    35  H    0.000432   0.114143  -0.008547  -0.030278  -0.011459   0.233595
              13         14         15         16         17         18
     1  C    0.470429   0.453266  -0.024897  -0.045330   0.008089  -0.011339
     2  C   -0.084074  -0.087336   0.419817   0.312776   0.042455   0.003746
     3  N    0.024935   0.005076  -0.054922  -0.082324  -0.043808  -0.053976
     4  C    0.023950  -0.011488   0.025259  -0.135408   0.649991   0.455201
     5  C   -0.014537   0.007627  -0.017108   0.113709  -0.248586  -0.095398
     6  C    0.000388  -0.000506  -0.000218  -0.004458   0.007708   0.018869
     7  C   -0.000063   0.000078   0.000626   0.003092  -0.013650  -0.002435
     8  C   -0.115701   0.032141  -0.027865   0.237952  -0.141531  -0.004256
     9  C    0.004171  -0.001967   0.001454  -0.059282   0.018373  -0.002889
    10  C    0.031660  -0.005739   0.003582  -0.032734   0.028784   0.003720
    11  C    0.021636  -0.002515   0.000759  -0.008625   0.003556   0.000100
    12  O   -0.060342  -0.056138  -0.001464   0.004547   0.000062   0.002434
    13  H    0.607688  -0.042162   0.004110  -0.002649   0.000014  -0.000020
    14  H   -0.042162   0.552317  -0.005562   0.001481   0.000001  -0.000042
    15  H    0.004110  -0.005562   0.537005  -0.026147   0.000333  -0.000855
    16  H   -0.002649   0.001481  -0.026147   0.556578  -0.000286  -0.000081
    17  H    0.000014   0.000001   0.000333  -0.000286   0.554895  -0.027319
    18  H   -0.000020  -0.000042  -0.000855  -0.000081  -0.027319   0.560713
    19  H    0.000003   0.000002   0.000752  -0.001407   0.004472  -0.004426
    20  H    0.000001  -0.000000   0.000096   0.000012  -0.005167   0.004426
    21  H   -0.000000   0.000000  -0.000005  -0.000000   0.002482  -0.000698
    22  H    0.000000   0.000000   0.000003   0.000002  -0.000263   0.002940
    23  H   -0.000000   0.000000  -0.000000   0.000000   0.000000  -0.000001
    24  H    0.000000  -0.000000  -0.000000  -0.000000   0.000003   0.000003
    25  H   -0.000000   0.000000  -0.000000   0.000001  -0.000003  -0.000004
    26  H    0.000010   0.000002  -0.000163   0.000050   0.004585   0.000370
    27  H    0.000114  -0.000002   0.000436   0.005796  -0.000367  -0.000362
    28  H    0.000200  -0.000003   0.000004  -0.000028  -0.000009   0.000002
    29  H    0.002963   0.000028   0.000059  -0.000698   0.000015   0.000010
    30  H   -0.002331   0.000089  -0.000008   0.000044  -0.000042   0.000011
    31  H    0.000064  -0.000000   0.000001  -0.000000   0.000014   0.000002
    32  H    0.000351   0.000000   0.000000   0.000005  -0.000000  -0.000000
    33  H   -0.000013   0.000000   0.000000   0.000000  -0.000000   0.000000
    34  H   -0.000004  -0.000000  -0.000000  -0.000000   0.000000   0.000000
    35  H   -0.003871   0.006780  -0.000468   0.000851  -0.000171  -0.001148
              19         20         21         22         23         24
     1  C    0.012734   0.001563   0.000157  -0.001546  -0.000077  -0.000002
     2  C    0.050555   0.049309  -0.003755  -0.002160  -0.001162   0.000055
     3  N    0.003231   0.003105  -0.000190  -0.001159  -0.000001   0.000008
     4  C    0.168038   0.200939  -0.021594  -0.061082  -0.022624  -0.001453
     5  C    0.158920   0.130060  -0.039072  -0.015402   0.018772   0.018849
     6  C    0.028494   0.045240   0.390310   0.385358  -0.100003  -0.070255
     7  C   -0.044964  -0.030298  -0.006830   0.018625   0.464218   0.418423
     8  C   -0.084804  -0.117934   0.004382   0.001684  -0.000917  -0.000271
     9  C    0.021762   0.030305   0.000661  -0.000602  -0.000714  -0.000017
    10  C    0.007931   0.017746  -0.000352  -0.000348  -0.000134   0.000003
    11  C    0.000616   0.001312  -0.000008  -0.000014  -0.000004   0.000000
    12  O   -0.000350  -0.000018  -0.000002   0.000020   0.000000   0.000000
    13  H    0.000003   0.000001  -0.000000   0.000000  -0.000000   0.000000
    14  H    0.000002  -0.000000   0.000000   0.000000   0.000000  -0.000000
    15  H    0.000752   0.000096  -0.000005   0.000003  -0.000000  -0.000000
    16  H   -0.001407   0.000012  -0.000000   0.000002   0.000000  -0.000000
    17  H    0.004472  -0.005167   0.002482  -0.000263   0.000000   0.000003
    18  H   -0.004426   0.004426  -0.000698   0.002940  -0.000001   0.000003
    19  H    0.562386  -0.032775   0.004499  -0.006053  -0.000441  -0.000022
    20  H   -0.032775   0.558900  -0.005277   0.004412   0.002584   0.000009
    21  H    0.004499  -0.005277   0.558830  -0.034320  -0.004651  -0.003036
    22  H   -0.006053   0.004412  -0.034320   0.560245   0.004229  -0.003055
    23  H   -0.000441   0.002584  -0.004651   0.004229   0.531548  -0.026603
    24  H   -0.000022   0.000009  -0.003036  -0.003055  -0.026603   0.533234
    25  H    0.002531  -0.000562   0.004260  -0.004591  -0.028898  -0.027046
    26  H    0.000247   0.000903   0.000001  -0.000003  -0.000001   0.000000
    27  H    0.000917  -0.000889   0.000005  -0.000006  -0.000003  -0.000000
    28  H    0.000001   0.000013  -0.000000  -0.000000  -0.000000  -0.000000
    29  H    0.000012   0.000024  -0.000000  -0.000000  -0.000000   0.000000
    30  H   -0.000001  -0.000002  -0.000000   0.000000   0.000000  -0.000000
    31  H    0.000000   0.000000  -0.000000  -0.000000  -0.000000   0.000000
    32  H   -0.000000  -0.000000   0.000000   0.000000   0.000000  -0.000000
    33  H   -0.000000  -0.000000   0.000000  -0.000000   0.000000  -0.000000
    34  H   -0.000000  -0.000000   0.000000   0.000000   0.000000   0.000000
    35  H    0.000001  -0.000004  -0.000000   0.000001   0.000000  -0.000000
              25         26         27         28         29         30
     1  C   -0.000057   0.014527   0.020053   0.005377   0.022393  -0.010673
     2  C   -0.001871   0.092090   0.081428   0.021190   0.092226  -0.032520
     3  N   -0.000042   0.047930   0.028653   0.034620   0.093842  -0.034302
     4  C   -0.011577   0.282714   0.204284   0.021147   0.094997  -0.050667
     5  C    0.010085  -0.228594  -0.175538  -0.015811  -0.056850   0.024424
     6  C   -0.090573   0.009463   0.014539   0.000369   0.001338  -0.000710
     7  C    0.451209  -0.004985  -0.004356  -0.000119  -0.000325   0.000092
     8  C    0.001330  -0.256262  -0.142319  -0.236207  -0.764284   0.289612
     9  C   -0.000043   0.155723   0.138851   0.413211   0.578810  -0.025738
    10  C   -0.000047   0.154393   0.114448   0.027549   0.082514   0.300354
    11  C   -0.000001   0.055823   0.025123   0.056279   0.153889  -0.145489
    12  O    0.000000  -0.000144  -0.001056  -0.000114  -0.000807   0.003374
    13  H   -0.000000   0.000010   0.000114   0.000200   0.002963  -0.002331
    14  H    0.000000   0.000002  -0.000002  -0.000003   0.000028   0.000089
    15  H   -0.000000  -0.000163   0.000436   0.000004   0.000059  -0.000008
    16  H    0.000001   0.000050   0.005796  -0.000028  -0.000698   0.000044
    17  H   -0.000003   0.004585  -0.000367  -0.000009   0.000015  -0.000042
    18  H   -0.000004   0.000370  -0.000362   0.000002   0.000010   0.000011
    19  H    0.002531   0.000247   0.000917   0.000001   0.000012  -0.000001
    20  H   -0.000562   0.000903  -0.000889   0.000013   0.000024  -0.000002
    21  H    0.004260   0.000001   0.000005  -0.000000  -0.000000  -0.000000
    22  H   -0.004591  -0.000003  -0.000006  -0.000000  -0.000000   0.000000
    23  H   -0.028898  -0.000001  -0.000003  -0.000000  -0.000000   0.000000
    24  H   -0.027046   0.000000  -0.000000  -0.000000   0.000000  -0.000000
    25  H    0.534700  -0.000000   0.000000  -0.000000  -0.000000   0.000000
    26  H   -0.000000   0.582328  -0.035134  -0.003548   0.005918  -0.000730
    27  H    0.000000  -0.035134   0.612461  -0.001599  -0.002247  -0.000163
    28  H   -0.000000  -0.003548  -0.001599   0.568173  -0.030151   0.004597
    29  H   -0.000000   0.005918  -0.002247  -0.030151   0.587567  -0.006474
    30  H    0.000000  -0.000730  -0.000163   0.004597  -0.006474   0.575039
    31  H    0.000000   0.002984   0.000012  -0.005653   0.004826  -0.032675
    32  H    0.000000  -0.000005  -0.000001  -0.000378   0.002527  -0.004304
    33  H    0.000000  -0.000003   0.000002  -0.000053  -0.000049  -0.003035
    34  H    0.000000  -0.000011  -0.000009   0.002456  -0.000734   0.004509
    35  H   -0.000000   0.000005   0.000075  -0.000001  -0.000022   0.001883
              31         32         33         34         35
     1  C    0.000341   0.000959   0.000453  -0.000591   0.016733
     2  C    0.002573  -0.003289  -0.001329  -0.001020  -0.096882
     3  N   -0.003937  -0.004319  -0.000532  -0.001303   0.053614
     4  C   -0.007764  -0.002486  -0.000819  -0.001021  -0.066799
     5  C    0.000832   0.000706   0.000204   0.000358   0.041753
     6  C   -0.000090  -0.000009  -0.000003  -0.000006  -0.001718
     7  C   -0.000006   0.000001   0.000000   0.000001   0.000432
     8  C    0.007461   0.045148   0.001421   0.022933   0.114143
     9  C   -0.026056   0.006245   0.038828   0.024736  -0.008547
    10  C    0.344322  -0.083513  -0.078776  -0.068614  -0.030278
    11  C    0.004487   0.396414   0.405019   0.380859  -0.011459
    12  O    0.000075   0.000090   0.000010  -0.000009   0.233595
    13  H    0.000064   0.000351  -0.000013  -0.000004  -0.003871
    14  H   -0.000000   0.000000   0.000000  -0.000000   0.006780
    15  H    0.000001   0.000000   0.000000  -0.000000  -0.000468
    16  H   -0.000000   0.000005   0.000000  -0.000000   0.000851
    17  H    0.000014  -0.000000  -0.000000   0.000000  -0.000171
    18  H    0.000002  -0.000000   0.000000   0.000000  -0.001148
    19  H    0.000000  -0.000000  -0.000000  -0.000000   0.000001
    20  H    0.000000  -0.000000  -0.000000  -0.000000  -0.000004
    21  H   -0.000000   0.000000   0.000000   0.000000  -0.000000
    22  H   -0.000000   0.000000  -0.000000   0.000000   0.000001
    23  H   -0.000000   0.000000   0.000000   0.000000   0.000000
    24  H    0.000000  -0.000000  -0.000000   0.000000  -0.000000
    25  H    0.000000   0.000000   0.000000   0.000000  -0.000000
    26  H    0.002984  -0.000005  -0.000003  -0.000011   0.000005
    27  H    0.000012  -0.000001   0.000002  -0.000009   0.000075
    28  H   -0.005653  -0.000378  -0.000053   0.002456  -0.000001
    29  H    0.004826   0.002527  -0.000049  -0.000734  -0.000022
    30  H   -0.032675  -0.004304  -0.003035   0.004509   0.001883
    31  H    0.561998   0.004312  -0.003010  -0.004399   0.000040
    32  H    0.004312   0.539489  -0.026554  -0.029369   0.000007
    33  H   -0.003010  -0.026554   0.534074  -0.026363   0.000001
    34  H   -0.004399  -0.029369  -0.026363   0.537402  -0.000000
    35  H    0.000040   0.000007   0.000001  -0.000000   0.365564
          Atomic-Atomic Spin Densities.
               1          2          3          4          5          6
     1  C    1.502988   0.764746   0.851716   3.777455  -2.868645   0.228331
     2  C    0.764746   3.302619   1.861753  10.125266  -8.572931   0.981335
     3  N    0.851716   1.861753   2.873111   3.700301  -2.142482  -0.080341
     4  C    3.777455  10.125266   3.700301  47.653745 -41.998010   6.471244
     5  C   -2.868645  -8.572931  -2.142482 -41.998010  38.398214  -6.349087
     6  C    0.228331   0.981335  -0.080341   6.471244  -6.349087   1.866091
     7  C   -0.091637  -0.513366   0.069348  -3.619056   3.584782  -1.425822
     8  C   -7.100981 -14.580017 -15.120857 -43.708806  32.545239  -2.450491
     9  C    1.056107   2.653369   2.295504   7.116786  -5.711221   0.445901
    10  C    1.283344   2.905722   3.655317   8.581544  -5.943112   0.376261
    11  C    0.697782   1.133902   2.016400   2.422772  -1.351091   0.050664
    12  O   -0.090495  -0.041019  -0.043610  -0.241302   0.161751  -0.009923
    13  H    0.024634   0.004806   0.021576   0.023808  -0.012850   0.000319
    14  H   -0.018751   0.006128  -0.003382  -0.011648   0.007260  -0.000267
    15  H    0.006773   0.001970   0.000196   0.026954  -0.021739   0.001967
    16  H   -0.033885  -0.041936  -0.026687  -0.082995   0.070307  -0.003701
    17  H    0.005704   0.028402   0.003557   0.168585  -0.147880   0.016384
    18  H    0.002279   0.008000  -0.001302   0.030528  -0.028872   0.002584
    19  H    0.010221   0.041496  -0.004795   0.204566  -0.211927   0.042472
    20  H    0.005421   0.055721   0.008761   0.290828  -0.302831   0.052103
    21  H   -0.000083  -0.001562   0.000751  -0.016839   0.017562  -0.006872
    22  H   -0.000615  -0.002976   0.002233  -0.036237   0.040511  -0.016667
    23  H   -0.000072  -0.001491   0.000323  -0.018876   0.014888  -0.013771
    24  H    0.000005   0.000099  -0.000025   0.001491   0.000181   0.001239
    25  H   -0.000073  -0.001085   0.000232  -0.008623   0.005997  -0.004808
    26  H    0.013580   0.093591   0.104150   0.288172  -0.221649   0.013693
    27  H    0.020064   0.112952   0.108034   0.310621  -0.254405   0.016671
    28  H    0.004091   0.021596   0.031969   0.031962  -0.017498   0.000606
    29  H    0.040618   0.069946   0.102957   0.087018  -0.053296   0.001262
    30  H   -0.016553  -0.021908  -0.050533  -0.050084   0.024276  -0.000531
    31  H    0.000466  -0.000327  -0.000011  -0.000687   0.000206  -0.000012
    32  H   -0.001543  -0.001643  -0.003284  -0.001706   0.000625  -0.000006
    33  H   -0.000299  -0.000480  -0.000989  -0.000597   0.000176  -0.000002
    34  H   -0.000399  -0.001162  -0.001812  -0.001150   0.000442  -0.000004
    35  H   -0.015430  -0.010772  -0.010725  -0.044249   0.026289  -0.001179
               7          8          9         10         11         12
     1  C   -0.091637  -7.100981   1.056107   1.283344   0.697782  -0.090495
     2  C   -0.513366 -14.580017   2.653369   2.905722   1.133902  -0.041019
     3  N    0.069348 -15.120857   2.295504   3.655317   2.016400  -0.043610
     4  C   -3.619056 -43.708806   7.116786   8.581544   2.422772  -0.241302
     5  C    3.584782  32.545239  -5.711221  -5.943112  -1.351091   0.161751
     6  C   -1.425822  -2.450491   0.445901   0.376261   0.050664  -0.009923
     7  C    1.282277   0.962514  -0.211086  -0.134015  -0.013626   0.002537
     8  C    0.962514 102.825249 -14.767421 -23.096578 -15.725507   0.411076
     9  C   -0.211086 -14.767421   4.293088   3.806259  -0.575992  -0.039271
    10  C   -0.134015 -23.096578   3.806259   7.674067   1.125723  -0.084589
    11  C   -0.013626 -15.725507  -0.575992   1.125723  10.523114  -0.032996
    12  O    0.002537   0.411076  -0.039271  -0.084589  -0.032996   0.008600
    13  H   -0.000060  -0.124992   0.013759   0.024594   0.024841  -0.001609
    14  H    0.000057   0.030669  -0.004302  -0.004777  -0.002459   0.001195
    15  H   -0.000677  -0.020744   0.002267   0.002724   0.000396  -0.000275
    16  H    0.001539   0.195276  -0.049445  -0.025061  -0.007023   0.001152
    17  H   -0.007413  -0.116263   0.019095   0.024825   0.003263  -0.000377
    18  H   -0.001701  -0.018974   0.004478   0.002284   0.000332  -0.000223
    19  H   -0.028567  -0.080234   0.015439   0.007310   0.000542  -0.000175
    20  H   -0.041112  -0.127717   0.040322   0.019014   0.001619  -0.000070
    21  H    0.003852   0.003385  -0.000166  -0.000336  -0.000012   0.000002
    22  H    0.009575   0.004365  -0.000322  -0.000305  -0.000010   0.000010
    23  H    0.017467   0.000604  -0.000355  -0.000135  -0.000003   0.000000
    24  H   -0.002808  -0.000041   0.000005   0.000003   0.000000  -0.000000
    25  H    0.007347   0.000667  -0.000142  -0.000037  -0.000001   0.000000
    26  H   -0.005262  -0.635902   0.126569   0.177653   0.048972  -0.000496
    27  H   -0.007828  -0.580969   0.123173   0.126189   0.028638  -0.000334
    28  H   -0.000126  -0.237328   0.028081   0.072123   0.066771  -0.000056
    29  H   -0.000339  -0.663065   0.096831   0.161150   0.141750  -0.001167
    30  H    0.000093   0.310863  -0.003112  -0.068225  -0.130143   0.001155
    31  H   -0.000000   0.006701  -0.007896   0.007068  -0.005050  -0.000012
    32  H    0.000001   0.039371   0.007713   0.016502  -0.057201   0.000028
    33  H    0.000000   0.013531   0.009617   0.012136  -0.033902   0.000007
    34  H    0.000001   0.030870   0.011390   0.014801  -0.054581   0.000003
    35  H    0.000222   0.093766  -0.008420  -0.021572  -0.010176   0.001915
              13         14         15         16         17         18
     1  C    0.024634  -0.018751   0.006773  -0.033885   0.005704   0.002279
     2  C    0.004806   0.006128   0.001970  -0.041936   0.028402   0.008000
     3  N    0.021576  -0.003382   0.000196  -0.026687   0.003557  -0.001302
     4  C    0.023808  -0.011648   0.026954  -0.082995   0.168585   0.030528
     5  C   -0.012850   0.007260  -0.021739   0.070307  -0.147880  -0.028872
     6  C    0.000319  -0.000267   0.001967  -0.003701   0.016384   0.002584
     7  C   -0.000060   0.000057  -0.000677   0.001539  -0.007413  -0.001701
     8  C   -0.124992   0.030669  -0.020744   0.195276  -0.116263  -0.018974
     9  C    0.013759  -0.004302   0.002267  -0.049445   0.019095   0.004478
    10  C    0.024594  -0.004777   0.002724  -0.025061   0.024825   0.002284
    11  C    0.024841  -0.002459   0.000396  -0.007023   0.003263   0.000332
    12  O   -0.001609   0.001195  -0.000275   0.001152  -0.000377  -0.000223
    13  H    0.001366  -0.000356   0.000023  -0.000276   0.000002   0.000002
    14  H   -0.000356   0.000243  -0.000036   0.000171  -0.000000  -0.000001
    15  H    0.000023  -0.000036   0.000429   0.000146   0.000001  -0.000010
    16  H   -0.000276   0.000171   0.000146   0.003659  -0.000021  -0.000015
    17  H    0.000002  -0.000000   0.000001  -0.000021   0.002004   0.000325
    18  H    0.000002  -0.000001  -0.000010  -0.000015   0.000325  -0.000171
[...]
 00003321,0.00002367,-0.00003025,-0.00107930,-0.00062403,-0.00000865,-0
 .00397560,-0.02343346,-0.01689200,-0.03147098,-0.11703830,-0.13155249,
 -0.00158810,-0.00571854,-0.00431102,-0.00045365,-0.00071545,0.00011454
 ,0.00006136,0.00036201,-0.00025933,-0.00006211,-0.00009288,-0.00000825
 ,-0.00004286,-0.00002861,0.00000227,0.00002412,0.00001707,0.00003860,-
 0.00004464,-0.00015450,-0.00000627,-0.00000680,-0.00001927,0.00004568,
 0.00000401,0.00002001,-0.00006356,-0.00014491,-0.00065969,-0.00013643,
 -0.00001522,-0.00005561,0.00001237,0.00003450,-0.00001367,0.00005249,-
 0.00004156,-0.00000577,-0.00001112,0.00002009,0.00000536,0.00002169,-0
 .00001116,-0.00000382,-0.00002182,0.00047795,-0.00020001,-0.00003445,0
 .00028748,0.00022328,0.00046366,0.00285697,0.00138375,-0.00336315,-0.0
 0063066,0.00017442,0.00071088,0.03315072,0.12967582,0.14316351,0.00000
 110,-0.00000530,0.00003334,0.00010488,0.00018221,-0.00008304,-0.000116
 31,-0.00003268,0.00026429,-0.00003557,0.00010015,0.00013401,0.00000831
 ,-0.00012205,0.00011668,-0.00000456,0.00004454,0.00003878,-0.00000284,
 -0.00000930,-0.00001167,0.00143408,-0.00094881,0.00017748,0.00243688,-
 0.01677893,0.01085192,-0.05690094,0.04012798,-0.02816050,-0.00826871,0
 .02725901,-0.01739104,-0.00007061,-0.00003413,0.00000382,-0.00002556,0
 .00007094,0.00001960,-0.00001753,-0.00002075,-0.00000693,-0.00001244,-
 0.00003217,-0.00002870,-0.00002197,-0.00002778,-0.00001125,0.00000666,
 0.00007113,-0.00001327,-0.00002950,0.00000890,0.00001412,-0.00002479,-
 0.00002317,-0.00004031,-0.00000908,-0.00002240,-0.00021446,0.00001275,
 0.00001093,0.00000448,0.00001619,0.00000259,0.00001741,-0.00000751,0.0
 0001412,-0.00001466,0.00001225,0.00000645,0.00001474,-0.00000711,-0.00
 001372,-0.00000565,-0.00014226,0.00061915,-0.00014646,0.00025534,-0.00
 002236,-0.00035307,0.00047970,0.00081490,-0.00071963,-0.00179635,0.000
 06627,0.00323490,0.00104358,-0.00527690,0.00417467,0.06526762,0.000119
 49,0.00013084,-0.00018137,0.00003481,-0.00004425,-0.00011757,-0.000430
 29,0.00026341,-0.00069210,0.00001880,-0.00046173,0.00018211,-0.0000982
 2,-0.00008640,-0.00045333,0.00002061,-0.00011121,-0.00001181,0.0000034
 6,-0.00000356,0.00001472,-0.00024075,0.00021630,0.00017678,0.00048619,
 0.00163368,-0.00019025,0.04143963,-0.21948683,0.11208741,-0.00075490,0
 .00131319,-0.00116007,-0.00016028,-0.00024982,0.00002481,-0.00001842,0
 .00003805,0.00001161,-0.00002375,-0.00004450,-0.00000400,-0.00004218,0
 .00002518,-0.00002369,-0.00000226,0.00005561,-0.00002181,-0.00002243,0
 .00002570,-0.00003273,0.00002298,-0.00002644,-0.00005877,0.00006112,0.
 00002488,0.00009313,0.00010202,0.00038953,0.00043330,-0.00001844,0.000
 01713,-0.00002431,-0.00004873,-0.00000014,-0.00005975,0.00003372,-0.00
 001966,0.00003186,-0.00004610,-0.00001020,-0.00002932,0.00001904,0.000
 02515,0.00002027,-0.00045602,-0.00059046,0.00002132,-0.00053589,0.0004
 1921,0.00042973,0.00000780,-0.00037294,-0.00027182,-0.00024293,0.00099
 636,0.00009228,0.00536087,-0.02046126,0.01432102,-0.04575953,0.2341031
 9,-0.00000621,-0.00003871,-0.00014461,-0.00003192,-0.00007269,-0.00008
 473,0.00005328,-0.00001607,-0.00001464,-0.00001185,0.00014217,-0.00001
 892,0.00000216,0.00000501,0.00007262,-0.00000782,0.00001275,-0.0000117
 7,0.00000201,0.00000449,0.00000326,-0.00136079,-0.00001154,0.00076880,
 -0.00447982,0.02277409,-0.01723075,-0.02852435,0.11084175,-0.12214467,
 -0.00120685,0.00558731,-0.00392789,-0.00010210,-0.00005856,0.00011455,
 0.00005366,-0.00005868,-0.00000700,-0.00000345,0.00001933,0.00001086,0
 .00001592,0.00001557,0.00002897,-0.00000147,0.00002189,0.00005167,0.00
 001183,-0.00000447,0.00001082,0.00002117,0.00001444,0.00001816,-0.0000
 1041,0.00000728,-0.00000985,-0.00001825,-0.00006484,-0.00004468,0.0000
 0249,-0.00000469,0.00000476,0.00000782,-0.00000021,0.00000924,-0.00000
 470,0.00000026,-0.00000429,0.00000709,0.00000024,0.00000170,-0.0000027
 2,-0.00000236,-0.00000288,0.00044702,-0.00013887,0.00035986,0.00002942
 ,-0.00045856,0.00004961,-0.00086577,0.00015752,0.00111811,0.00368410,0
 .00032656,-0.00427637,0.00417079,-0.01451046,0.01036227,0.02916695,-0.
 12438582,0.13407832,-0.00007386,-0.00002694,-0.00009161,-0.00000235,0.
 00002344,-0.00001204,-0.00005613,-0.00001932,-0.00006069,0.00001323,-0
 .00002978,-0.00000654,-0.00000721,0.00003991,-0.00003108,0.,-0.0000105
 8,-0.00000057,0.00000179,0.00000032,0.00000137,0.00006682,-0.00024018,
 0.00002439,0.00162629,0.00083562,-0.00112456,-0.00769804,0.02772828,-0
 .01667991,-0.05950175,0.04819808,-0.02956651,0.00001270,-0.00000820,0.
 00005209,0.00004501,0.00005723,0.00003602,0.00001949,0.00000643,0.0000
 0609,0.00000781,-0.00000523,0.00000160,0.00000059,0.00000349,0.0000018
 6,-0.00000111,-0.00001305,0.00000398,0.00000072,-0.00000358,-0.0000054
 3,0.00000502,-0.00000132,0.00000944,0.00000744,0.00001171,0.00003776,-
 0.00000133,-0.00000108,-0.00000068,-0.00000363,-0.00000105,-0.00000434
 ,0.00000216,-0.00000245,0.00000248,-0.00000368,-0.00000077,-0.00000237
 ,0.00000118,0.00000181,0.00000184,0.00003719,-0.00010260,0.00009130,-0
 .00001677,-0.00001810,0.00007415,-0.00005127,-0.00002911,0.00010216,0.
 00000779,-0.00041261,0.00050439,0.00151521,-0.00035177,0.00033657,-0.0
 0644307,-0.00005154,-0.00147136,0.06559784,-0.00008779,-0.00000585,-0.
 00001601,0.00001624,-0.00002126,0.00001005,0.00009650,-0.00001819,0.00
 003406,-0.00003356,-0.00000316,-0.00001782,0.00000552,-0.00007584,-0.0
 0001554,0.00000461,-0.00000900,-0.00000472,0.00000277,-0.00000166,0.00
 000438,-0.00006676,0.00017600,-0.00023927,-0.00012340,0.00040516,-0.00
 011309,-0.00063132,0.00057014,-0.00051874,0.04893855,-0.22902549,0.112
 60993,0.00002825,0.00002296,-0.00002057,0.00010308,0.00009643,0.000024
 64,0.00001816,0.00001274,0.00000541,0.00000128,0.00000538,0.00000005,0
 .00000190,-0.00000072,-0.00000044,0.00000376,0.00001802,-0.00000303,0.
 00000884,0.00000334,0.00000331,0.00000062,-0.00000181,0.00000295,0.000
 01623,0.00006354,0.00000982,0.00000138,0.00000577,-0.00000164,-0.00000
 232,0.00000220,-0.00000377,0.00000322,0.00000075,0.00000082,-0.0000007
 4,-0.00000050,-0.00000155,0.00000105,0.00000050,0.00000098,-0.00012642
 ,0.00001558,0.00003005,0.00007656,0.00000958,-0.00003675,0.00001396,-0
 .00004599,-0.00003329,0.00039074,-0.00013805,-0.00028798,0.00037822,0.
 00074695,-0.00004239,0.00014062,0.00139557,0.00013314,-0.05399354,0.24
 465242,0.00001039,-0.00001407,-0.00000918,-0.00000697,0.00003304,-0.00
 001091,-0.00005351,-0.00000274,-0.00004405,0.00000853,-0.00004270,0.00
 000929,-0.00001210,-0.00001205,-0.00003241,0.00000245,-0.00000614,0.00
 000143,-0.00000148,-0.00000013,-0.00000089,0.00010790,-0.00015457,0.00
 018817,0.00070747,-0.00072545,0.00049486,-0.00174210,0.00665482,-0.004
 94338,-0.02994044,0.11246398,-0.11814813,0.00002322,-0.00000352,0.0000
 0721,-0.00007794,-0.00005139,0.00000834,-0.00000013,-0.00000425,-0.000
 00168,0.00000133,-0.00000880,0.,0.00000132,-0.00000033,-0.00000164,0.0
 0000063,0.,0.00000085,-0.00000529,-0.00000472,-0.00000731,0.00000239,0
 .00000069,0.00000867,0.00000667,0.00002844,0.00002769,-0.00000085,0.00
 000137,-0.00000117,-0.00000398,-0.00000082,-0.00000482,0.00000268,-0.0
 0000148,0.00000200,-0.00000420,-0.00000054,-0.00000209,0.00000116,0.00
 000159,0.00000207,0.00009394,0.00000550,-0.00004827,-0.00009722,-0.000
 00063,0.00002621,0.00001029,-0.00006575,-0.00000684,-0.00014846,0.0000
 4116,0.00036777,0.00025978,-0.00001476,-0.00007481,-0.00201353,-0.0002
 6368,0.00043712,0.03503694,-0.12435462,0.12379848,0.00001776,0.0000125
 8,0.00002884,0.00000648,0.00015190,-0.00014543,-0.00010994,-0.00006127
 ,-0.00011202,0.00008537,-0.00015018,0.00013989,-0.00003084,0.00002729,
 -0.00005873,0.00000409,-0.00001571,0.00003294,-0.00000629,-0.00000407,
 -0.00001287,-0.00031827,0.00027472,0.00234290,-0.00619135,-0.00002093,
 -0.00435551,-0.01588412,-0.00061128,0.02831820,-0.13112946,-0.00263551
 ,0.12367002,0.00001470,-0.00007300,-0.00003517,-0.00003463,0.00002750,
 -0.00000714,-0.00000291,-0.00003268,-0.00000993,-0.00001673,-0.0000436
 2,0.00000063,0.00000467,0.00000831,0.00001667,-0.00000880,0.00002819,-
 0.00001101,-0.00005568,-0.00002465,-0.00003248,0.00000376,-0.00000511,
 0.00000838,-0.00000164,0.00001538,-0.00000585,-0.00000020,0.00000712,-
 0.00000547,-0.00000885,-0.00000301,-0.00000735,0.00000417,0.00000182,0
 .00000194,-0.00001043,0.00000137,0.00000129,0.00000083,-0.00000020,0.0
 0000288,0.00001033,0.00005171,-0.00007045,-0.00089849,-0.00011196,-0.0
 0016608,0.00021300,0.00006982,-0.00010389,0.00020516,-0.00014298,-0.00
 008704,0.00126531,-0.00047127,-0.00001356,0.00127388,0.00050263,-0.000
 04787,0.00403861,-0.00057876,-0.00674256,0.14333721,-0.00000225,0.0000
 0891,0.00001880,0.00000977,-0.00001434,0.00000587,0.00009451,0.0000038
 2,0.00000609,0.00000403,0.00002180,-0.00000685,0.00000030,-0.00000010,
 0.00000356,0.00000039,0.00000083,-0.00000255,0.00000050,0.00000040,0.0
 0000076,-0.00003285,0.00042213,-0.00005568,0.00010343,0.00076894,0.000
 13928,0.00035467,-0.00133777,-0.00034801,-0.00272035,-0.04783405,0.003
 78153,0.00001520,0.00000572,-0.00001695,0.00001574,0.00001889,0.000001
 35,-0.00000172,0.00000034,-0.00000129,-0.00000130,-0.00000014,-0.00000
 019,0.00000190,0.00000054,-0.00000280,-0.00000159,-0.00000389,0.000001
 84,0.00000364,-0.00000089,0.00000209,-0.00000033,0.00000110,0.00000003
 ,-0.00000115,-0.00000477,0.00000170,-0.00000030,-0.00000050,0.00000028
 ,-0.00000025,-0.00000050,-0.00000008,-0.00000006,-0.00000043,-0.000000
 02,0.00000023,-0.00000008,-0.00000022,0.00000007,0.00000017,0.00000003
 ,-0.00005295,-0.00001658,0.00000798,0.00000985,-0.00001184,-0.00000938
 ,-0.00019004,0.00010254,0.00031842,0.00005988,0.00009022,-0.00034094,-
 0.00001863,0.00003746,0.00035011,-0.00001988,0.00009514,-0.00036399,-0
 .01573094,0.00063860,0.02186559,0.00284344,0.04550251,-0.00000272,-0.0
 0000911,-0.00000737,-0.00001238,-0.00001646,0.00001985,0.00011275,0.00
 003199,-0.00002839,-0.00000462,0.00001155,-0.00003133,0.00000264,0.000
 07097,0.00002617,-0.00000130,0.00000029,-0.00000835,0.00000045,0.00000
 073,0.00000105,-0.00041461,-0.00004881,0.00021699,-0.00087330,0.000096
 16,0.00041955,-0.00709454,-0.00021267,0.00841696,0.12559379,0.00383298
 ,-0.23188690,0.00000620,0.00001260,0.00000473,0.00000315,-0.00000183,0
 .00000197,0.00000151,0.00000552,0.00000033,0.00000432,0.00000595,-0.00
 000316,0.00000105,0.00000473,-0.00000781,-0.00000101,-0.00001504,0.000
 00526,0.00000572,0.00000377,0.00000538,0.00000144,0.00000232,-0.000003
 57,-0.00001028,-0.00004652,-0.00000669,-0.00000131,-0.00000457,0.00000
 168,0.00000169,0.00000006,0.00000323,-0.00000294,-0.00000065,-0.000000
 72,0.00000331,-0.00000005,0.00000071,-0.00000104,0.00000002,-0.0000017
 1,0.00007101,-0.00000951,-0.00000543,-0.00005848,0.00000086,0.00002301
 ,-0.00013446,0.00010399,0.00008665,-0.00009680,-0.00013356,0.00010319,
 0.00064167,0.00019595,0.00049821,0.00062806,-0.00021730,0.00048853,0.0
 0822899,-0.00100416,-0.01246799,-0.13565828,-0.00428099,0.24764760,0.0
 0003412,0.00003749,-0.00009718,0.00001660,0.00011212,-0.00006253,-0.00
 037588,-0.00004013,0.00021933,0.00008144,0.00004926,0.00013490,-0.0000
 3935,0.00006037,-0.00001386,-0.00001057,0.00002603,0.00002596,-0.00000
 684,-0.00000350,-0.00000906,0.00016543,0.00004691,-0.00023689,0.001726
 91,-0.00069845,-0.00095851,-0.00781787,-0.02712833,-0.01819028,-0.0610
 9382,-0.04846188,-0.03337201,-0.00007531,-0.00010061,0.00003698,-0.000
 01264,0.00002235,-0.00000181,-0.00000854,-0.00002257,0.00000527,-0.000
 00623,-0.00001991,0.00000636,-0.00000631,-0.00001551,0.00002659,-0.000
 00545,-0.00000952,-0.00000725,-0.00000917,-0.00000777,0.00000223,0.000
 00083,-0.00000432,-0.00000696,-0.00001591,-0.00006936,-0.00002528,-0.0
 0000069,-0.00000474,0.00000036,0.00000469,-0.00000283,0.00000565,-0.00
 000430,0.00000148,-0.00000106,-0.00000050,0.00000218,0.00000474,-0.000
 00051,-0.00000162,-0.00000107,0.00003805,0.00000022,-0.00001511,0.0000
 2783,0.00000810,0.00002199,-0.00008619,0.00042488,0.00044053,-0.000039
 07,-0.00002937,0.00015534,-0.00644075,0.00025449,-0.00159811,0.0014934
 6,0.00046231,0.00033107,0.00084488,0.00541825,0.00458391,0.00423187,0.
 01526992,0.00907014,0.06725590,0.00004069,0.00004136,0.00000181,-0.000
 00996,0.00001225,-0.00002792,0.00002299,0.00000161,-0.00006085,0.00004
 990,-0.00003435,0.00001725,-0.00001561,0.00002002,-0.00002518,0.000001
 33,-0.00001646,0.00000179,-0.00000257,0.00000298,-0.00000191,-0.000109
 31,0.00004620,0.00027988,0.00007461,0.00061761,0.00020835,0.00065297,0
 .00125111,0.00101679,-0.04923380,-0.21627188,-0.11754351,-0.00002169,-
 0.00002784,-0.00002307,0.00000205,0.00002223,-0.00001413,-0.00000595,-
 0.00001165,-0.00000100,-0.00000684,0.00000253,-0.00000463,0.00000589,0
 .00000501,0.00000159,-0.00000462,0.00000231,-0.00000422,-0.00000265,-0
 .00000507,-0.00000655,0.00000492,0.00000234,0.00000788,0.00000664,0.00
 002993,0.00003563,-0.00000134,0.00000068,-0.00000189,-0.00000424,-0.00
 000017,-0.00000489,0.00000279,-0.00000167,0.00000237,-0.00000476,-0.00
 000120,-0.00000237,0.00000036,0.00000184,0.00000151,-0.00001924,-0.000
 03852,-0.00001148,-0.00007452,-0.00000886,-0.00002355,-0.00034610,-0.0
 0027442,0.00021189,-0.00002091,-0.00003667,0.00001358,0.00005844,0.001
 41563,-0.00000821,-0.00039840,0.00064747,0.00010347,-0.00587875,-0.019
 46254,-0.01538684,0.00089784,0.00150831,0.00163394,0.05431877,0.230551
 10,0.00000827,-0.00000081,-0.00003743,0.00000916,0.00005874,-0.0000492
 2,-0.00008254,-0.00000885,0.00006827,0.00003881,-0.00002820,0.00004795
 ,-0.00002412,-0.00007943,-0.00005031,0.00000596,-0.00001379,0.00001110
 ,-0.00000249,-0.00000073,-0.00000346,-0.00005847,0.00011798,0.00005346
 ,0.00077494,0.00079549,0.00059739,-0.00165695,-0.00621043,-0.00500089,
 -0.03385124,-0.11727181,-0.13035627,-0.00003176,-0.00003157,0.00002677
 ,-0.00002957,-0.00001785,0.00000020,-0.00000293,-0.00001346,-0.0000007
 7,-0.00000757,-0.00000935,0.00000282,0.00000262,0.00000071,0.00001518,
 -0.00000073,0.00002360,-0.00000944,-0.00000614,-0.00000720,-0.00000931
 ,0.00000116,-0.00000256,0.00001144,0.00001749,0.00008512,0.00002816,0.
 00000069,0.00000698,-0.00000363,-0.00000567,0.00000069,-0.00000809,0.0
 0000556,0.00000059,0.00000241,-0.00000668,-0.00000045,-0.00000179,0.00
 000111,0.00000098,0.00000302,-0.00005698,0.00002048,-0.00001588,-0.000
 09555,-0.00002477,-0.00004764,-0.00018032,-0.00017185,0.00031444,-0.00
 010896,0.00001322,0.00002941,-0.00193665,0.00031868,0.00056353,0.00025
 472,0.00002963,-0.00010487,0.00449832,0.01386631,0.01041941,-0.0069529
 0,-0.02107478,-0.01349852,0.03942755,0.12958993,0.13695999,0.00303732,
 -0.00065739,-0.00239447,-0.00037314,-0.00057557,0.00459286,-0.00154689
 ,-0.00503517,-0.00275289,-0.00311034,0.00111238,-0.00022062,0.00034821
 ,-0.00001592,0.00019896,0.00003449,-0.00003918,-0.00025048,0.00007461,
 0.00000449,0.00008437,0.00227054,0.00175641,-0.00046126,0.00021983,0.0
 0007925,-0.00003335,-0.00025060,-0.00065398,-0.00090092,-0.00005304,0.
 00029430,0.00019043,-0.05027338,0.12677493,-0.05070444,-0.00007479,0.0
 0081950,-0.00019248,-0.00043314,-0.00043832,0.00259652,-0.00016138,0.0
 0010941,-0.00008911,-0.00008849,0.00001110,-0.00082882,0.00023244,-0.0
 0029220,0.00016055,-0.00031465,-0.00004049,0.00000815,0.00002037,0.000
 02156,-0.00004024,0.00003255,-0.00000574,0.00002840,-0.00000602,-0.000
 02075,0.00002536,0.00000095,0.00001289,0.00001574,0.00000073,-0.000011
 62,-0.00000441,0.00005061,-0.00001301,-0.00002093,0.00000174,0.0000067
 7,-0.00000837,0.00001052,-0.00035317,-0.00003328,-0.00029839,-0.000702
 33,-0.00044995,-0.00022829,-0.00008854,0.00008077,-0.00009172,0.000039
 69,-0.00003691,-0.00069304,-0.00078321,0.00035547,0.00009005,0.0002571
 8,0.00015095,0.00000842,-0.00002573,-0.00001023,-0.00000858,-0.0000128
 6,-0.00000981,0.00013389,0.00002105,0.00005186,0.05143859,-0.00173932,
 0.00308072,0.00480738,0.00222623,0.00054291,-0.00545266,-0.00350839,0.
 00443128,0.00293514,0.00242650,-0.00011468,0.00245449,-0.00098044,-0.0
 0014179,-0.00072405,-0.00013244,0.00010206,0.00045504,-0.00011460,-0.0
 0002384,-0.00013767,-0.00152622,-0.00269037,-0.00038155,-0.00016833,0.
 00009185,-0.00002980,0.00011956,-0.00063292,-0.00032689,-0.00001192,0.
 00023883,0.00006136,0.12516692,-0.39468900,0.14902593,-0.00060531,-0.0
 0041356,-0.00208107,0.00124184,0.00088914,-0.00104771,-0.00038347,-0.0
 0022845,0.00036882,0.00050419,-0.00110840,0.00067356,-0.00018581,0.000
 18389,-0.00023861,-0.00039496,-0.00022867,-0.00029482,0.00000444,-0.00
 005789,0.00005361,0.00004380,0.00007193,-0.00008193,0.00001409,0.00003
 460,-0.00002928,-0.00001674,-0.00003064,-0.00002614,0.00001302,0.00001
 194,0.00000038,-0.00008835,0.00001929,0.00003696,-0.00000036,-0.000009
 61,0.00001508,-0.00008119,0.00042594,0.00004834,0.00016266,0.00066935,
 0.00054957,0.00023495,0.00006689,0.00004551,0.00006537,-0.00005584,0.0
 0009337,-0.00093439,-0.00050086,0.00023584,0.00000836,0.00015380,0.000
 02322,0.00002616,-0.00003160,0.00002382,0.00006453,-0.00000248,-0.0000
 1316,0.00010529,0.00000880,0.00003878,-0.12155569,0.38993735,-0.012095
 34,0.04107798,-0.03062341,0.00210764,0.00322937,-0.00351051,-0.0026897
 6,0.00352684,0.00269379,0.00184221,-0.00019685,0.00174283,-0.00071493,
 -0.00000962,-0.00053993,-0.00008726,0.00010004,0.00034570,-0.00009545,
 -0.00001470,-0.00010918,-0.00148637,-0.00202818,-0.00061374,-0.0000304
 6,0.00004819,-0.00015487,0.00007084,-0.00032214,-0.00018598,-0.0000094
 5,0.00021468,-0.00000988,-0.03595398,0.10538221,-0.08797576,-0.0003247
 1,0.00023064,-0.00004060,-0.00039689,-0.00176804,-0.00675134,0.0000813
 5,-0.00028841,-0.00008125,-0.00069082,0.00063410,0.00074158,-0.0002504
 7,0.00029027,-0.00023121,-0.00013059,-0.00015361,-0.00007416,0.0000213
 3,-0.00003036,0.00001665,0.00001307,0.00004472,0.00001974,-0.00000796,
 0.00002777,-0.00003288,-0.00001128,-0.00002791,-0.00001568,0.00000802,
 0.00000693,0.00000610,-0.00007446,0.00001456,0.00002616,0.00000387,-0.
 00000301,0.00000830,-0.00002302,0.00030793,0.00004530,0.00008776,0.000
 71479,0.00063161,0.00014768,0.00014495,0.00008802,-0.00002019,-0.00003
 665,-0.00004864,-0.00043826,-0.00026852,0.00042536,0.00006421,0.000229
 48,0.00003869,0.00000597,-0.00002052,0.00000598,0.00007700,-0.00000059
 ,-0.00001307,0.00009810,0.00002451,0.00004256,0.05090257,-0.15108086,0
 .12413373\\-0.00000203,-0.00000150,0.00000557,0.00000193,-0.00000070,0
 .00000234,-0.00000239,0.00001055,-0.00000824,-0.00000385,-0.00000608,0
 .00000225,-0.00000342,0.00000382,-0.00000291,0.00000113,0.00000106,0.0
 0000119,0.00000007,0.00000266,-0.00000160,0.00002002,0.00000055,0.0000
 0346,0.00000250,0.00000351,0.00000142,-0.00000032,0.00000127,-0.000002
 52,-0.00000340,-0.00000141,-0.00000082,-0.00000247,-0.00000613,0.00000
 104,-0.00000077,-0.00000076,0.00000348,0.00000094,-0.00000261,0.000003
 13,-0.00000206,-0.00000184,0.00000455,-0.00000155,-0.00000144,0.000001
 74,0.00000399,-0.00000513,0.00000342,-0.00000252,-0.00000550,-0.000002
 47,0.00000051,0.00000353,0.00000126,-0.00000497,-0.00000002,-0.0000013
 4,0.00000017,-0.00000049,-0.00000224,0.00000029,-0.00000188,0.00000077
 ,0.00000009,0.00000312,-0.00000115,-0.00000087,0.00000058,-0.00000039,
 -0.00000084,0.00000170,0.00000282,-0.00000170,0.00000202,-0.00000494,-
 0.00000238,-0.00000047,0.00000061,0.00000322,0.00000419,-0.00000136,-0
 .00000206,0.00000690,0.00000068,-0.00000167,-0.00000465,-0.00000225,0.
 00000117,-0.00000085,-0.00000574,0.00000071,-0.00000162,0.00000025,-0.
 00000066,-0.00000292,-0.00000283,0.00000219,0.00000134,-0.00000184,0.0
 0000098,-0.00000080,0.00000269\\\@
 The archive entry for this job was punched.


 ... IT CAN BE VERY DIFFICULT, IN THESE COMPLEX TIMES,
 TO UNDERSTAND JUST HOW SCIENTISTS DO WHAT THEY DO.

                     DON MOSER IN THE FEBRUARY 1979 SMITHSONIAN
 Job cpu time:       0 days  3 hours 21 minutes 29.1 seconds.
 Elapsed time:       0 days  0 hours 10 minutes 22.2 seconds.
 File lengths (MBytes):  RWF=    872 Int=      0 D2E=      0 Chk=     24 Scr=      1
 Normal termination of Gaussian 16 at Mon Nov  7 21:37:29 2022.
