 Entering Gaussian System, Link 0=g16
 Input=DBAE-conformers-18.gau
 Output=DBAE-conformers-18.log
 Initial command:
 /apps/gaussian/g16c01/g16/l1.exe "/jobfs/63131327.gadi-pbs/Gau-1255912.inp" -scrdir="/jobfs/63131327.gadi-pbs/"
 Default is to use a total of  20 processors:
                               20 via shared-memory
                                1 via Linda
 Entering Link 1 = /apps/gaussian/g16c01/g16/l1.exe PID=   1255913.
  
 Copyright (c) 1988-2019, Gaussian, Inc.  All Rights Reserved.
  
 This is part of the Gaussian(R) 16 program.  It is based on
 the Gaussian(R) 09 system (copyright 2009, Gaussian, Inc.),
 the Gaussian(R) 03 system (copyright 2003, Gaussian, Inc.),
 the Gaussian(R) 98 system (copyright 1998, Gaussian, Inc.),
 the Gaussian(R) 94 system (copyright 1995, Gaussian, Inc.),
 the Gaussian 92(TM) system (copyright 1992, Gaussian, Inc.),
 the Gaussian 90(TM) system (copyright 1990, Gaussian, Inc.),
 the Gaussian 88(TM) system (copyright 1988, Gaussian, Inc.),
 the Gaussian 86(TM) system (copyright 1986, Carnegie Mellon
 University), and the Gaussian 82(TM) system (copyright 1983,
 Carnegie Mellon University). Gaussian is a federally registered
 trademark of Gaussian, Inc.
  
 This software contains proprietary and confidential information,
 including trade secrets, belonging to Gaussian, Inc.
  
 This software is provided under written license and may be
 used, copied, transmitted, or stored only in accord with that
 written license.
  
 The following legend is applicable only to US Government
 contracts under FAR:
  
                    RESTRICTED RIGHTS LEGEND
  
 Use, reproduction and disclosure by the US Government is
 subject to restrictions as set forth in subparagraphs (a)
 and (c) of the Commercial Computer Software - Restricted
 Rights clause in FAR 52.227-19.
  
 Gaussian, Inc.
 340 Quinnipiac St., Bldg. 40, Wallingford CT 06492
  
  
 ---------------------------------------------------------------
 Warning -- This program may not be used in any manner that
 competes with the business of Gaussian, Inc. or will provide
 assistance to any competitor of Gaussian, Inc.  The licensee
 of this program is prohibited from giving any competitor of
 Gaussian, Inc. access to this program.  By using this program,
 the user acknowledges that Gaussian, Inc. is engaged in the
 business of creating and licensing software in the field of
 computational chemistry and represents and warrants to the
 licensee that it is not a competitor of Gaussian, Inc. and that
 it will not use this program in any manner prohibited above.
 ---------------------------------------------------------------
  

 Cite this work as:
 Gaussian 16, Revision C.01,
 M. J. Frisch, G. W. Trucks, H. B. Schlegel, G. E. Scuseria, 
 M. A. Robb, J. R. Cheeseman, G. Scalmani, V. Barone, 
 G. A. Petersson, H. Nakatsuji, X. Li, M. Caricato, A. V. Marenich, 
 J. Bloino, B. G. Janesko, R. Gomperts, B. Mennucci, H. P. Hratchian, 
 J. V. Ortiz, A. F. Izmaylov, J. L. Sonnenberg, D. Williams-Young, 
 F. Ding, F. Lipparini, F. Egidi, J. Goings, B. Peng, A. Petrone, 
 T. Henderson, D. Ranasinghe, V. G. Zakrzewski, J. Gao, N. Rega, 
 G. Zheng, W. Liang, M. Hada, M. Ehara, K. Toyota, R. Fukuda, 
 J. Hasegawa, M. Ishida, T. Nakajima, Y. Honda, O. Kitao, H. Nakai, 
 T. Vreven, K. Throssell, J. A. Montgomery, Jr., J. E. Peralta, 
 F. Ogliaro, M. J. Bearpark, J. J. Heyd, E. N. Brothers, K. N. Kudin, 
 V. N. Staroverov, T. A. Keith, R. Kobayashi, J. Normand, 
 K. Raghavachari, A. P. Rendell, J. C. Burant, S. S. Iyengar, 
 J. Tomasi, M. Cossi, J. M. Millam, M. Klene, C. Adamo, R. Cammi, 
 J. W. Ochterski, R. L. Martin, K. Morokuma, O. Farkas, 
 J. B. Foresman, and D. J. Fox, Gaussian, Inc., Wallingford CT, 2019.
 
 ******************************************
 Gaussian 16:  ES64L-G16RevC.01  3-Jul-2019
                 9-Nov-2022 
 ******************************************
 %chk=DBAE-conformers-18.chk
 Default route: Maxdisk=0MB
 ----------------------------------------------------------------------
 # opt(maxcycles=1000) freq=Noraman scf(maxcycle=500) uwb97xd/6-31+G(d,
 p) scrf=(smd,solvent=acetonitrile)
 ----------------------------------------------------------------------
 1/6=1000,18=20,19=15,26=3,38=1/1,3;
 2/9=110,12=2,17=6,18=5,40=1/2;
 3/5=1,6=6,7=111,11=2,25=1,30=1,70=32201,71=1,72=2,74=-58,116=2/1,2,3;
 4//1;
 5/5=2,7=500,38=5,53=2/2;
 6/7=2,8=2,9=2,10=2,28=1/1;
 7//1,2,3,16;
 1/6=1000,18=20,19=15,26=3/3(2);
 2/9=110/2;
 99//99;
 2/9=110/2;
 3/5=1,6=6,7=111,11=2,25=1,30=1,70=32205,71=1,72=2,74=-58,116=2/1,2,3;
 4/5=5,16=3,69=1/1;
 5/5=2,7=500,38=5,53=2/2;
 7//1,2,3,16;
 1/6=1000,18=20,19=15,26=3/3(-5);
 2/9=110/2;
 6/7=2,8=2,9=2,10=2,19=2,28=1/1;
 99/9=1/99;
 ----------
 OPT + Freq
 ----------
 Symbolic Z-matrix:
 Charge = -1 Multiplicity = 2
 C                     0.08112   3.20145  -0.39933 
 C                     0.79648   1.87341  -0.64996 
 N                     0.15376   0.81306   0.12887 
 C                     1.08904  -0.24135   0.53904 
 C                     1.56116  -1.17836  -0.57938 
 C                     2.5281   -2.25343  -0.08869 
 C                     3.89302  -1.71083   0.33783 
 C                    -1.04906   0.31533  -0.54688 
 C                    -1.84224  -0.69137   0.27522 
 C                    -3.16864  -1.05226  -0.39255 
 C                    -3.93951  -2.12407   0.3758 
 O                    -0.10481   3.38932   0.9974 
 H                    -0.88854   3.22956  -0.9153 
 H                     0.68667   4.03048  -0.77653 
 H                     1.83188   1.96604  -0.30613 
 H                     0.81894   1.65565  -1.73014 
 H                     0.60395  -0.84141   1.31803 
 H                     1.93632   0.25967   1.02015 
 H                     2.03873  -0.59695  -1.38337 
 H                     0.69882  -1.68527  -1.04968 
 H                     2.66233  -2.98169  -0.90352 
 H                     2.06888  -2.80672   0.74254 
 H                     4.57672  -2.52954   0.59121 
 H                     3.82387  -1.05841   1.21465 
 H                     4.35146  -1.1316   -0.47228 
 H                    -0.79586  -0.13936  -1.52585 
 H                    -1.69342   1.17706  -0.75736 
 H                    -2.02199  -0.28671   1.28062 
 H                    -1.25747  -1.61502   0.39522 
 H                    -2.96735  -1.40814  -1.4123 
 H                    -3.78664  -0.15018  -0.49029 
 H                    -4.88528  -2.36778  -0.11967 
 H                    -4.16941  -1.78815   1.39369 
 H                    -3.35288  -3.04684   0.45233 
 H                    -0.21449   2.47823   1.32613 
 

 GradGradGradGradGradGradGradGradGradGradGradGradGradGradGradGradGradGrad
 Berny optimization.
 Initialization pass.
                           ----------------------------
                           !    Initial Parameters    !
                           ! (Angstroms and Degrees)  !
 --------------------------                            --------------------------
 ! Name  Definition              Value          Derivative Info.                !
 --------------------------------------------------------------------------------
 ! R1    R(1,2)                  1.5291         estimate D2E/DX2                !
 ! R2    R(1,12)                 1.4215         estimate D2E/DX2                !
 ! R3    R(1,13)                 1.0987         estimate D2E/DX2                !
 ! R4    R(1,14)                 1.0937         estimate D2E/DX2                !
 ! R5    R(2,3)                  1.4643         estimate D2E/DX2                !
 ! R6    R(2,15)                 1.0949         estimate D2E/DX2                !
 ! R7    R(2,16)                 1.1021         estimate D2E/DX2                !
 ! R8    R(3,4)                  1.4679         estimate D2E/DX2                !
 ! R9    R(3,8)                  1.4667         estimate D2E/DX2                !
 ! R10   R(4,5)                  1.5335         estimate D2E/DX2                !
 ! R11   R(4,17)                 1.0965         estimate D2E/DX2                !
 ! R12   R(4,18)                 1.0956         estimate D2E/DX2                !
 ! R13   R(5,6)                  1.5269         estimate D2E/DX2                !
 ! R14   R(5,19)                 1.1011         estimate D2E/DX2                !
 ! R15   R(5,20)                 1.1053         estimate D2E/DX2                !
 ! R16   R(6,7)                  1.5295         estimate D2E/DX2                !
 ! R17   R(6,21)                 1.1011         estimate D2E/DX2                !
 ! R18   R(6,22)                 1.0991         estimate D2E/DX2                !
 ! R19   R(7,23)                 1.0963         estimate D2E/DX2                !
 ! R20   R(7,24)                 1.0951         estimate D2E/DX2                !
 ! R21   R(7,25)                 1.0963         estimate D2E/DX2                !
 ! R22   R(8,9)                  1.5226         estimate D2E/DX2                !
 ! R23   R(8,26)                 1.1087         estimate D2E/DX2                !
 ! R24   R(8,27)                 1.0964         estimate D2E/DX2                !
 ! R25   R(9,10)                 1.5282         estimate D2E/DX2                !
 ! R26   R(9,28)                 1.0986         estimate D2E/DX2                !
 ! R27   R(9,29)                 1.0998         estimate D2E/DX2                !
 ! R28   R(10,11)                1.5275         estimate D2E/DX2                !
 ! R29   R(10,30)                1.0987         estimate D2E/DX2                !
 ! R30   R(10,31)                1.0978         estimate D2E/DX2                !
 ! R31   R(11,32)                1.0952         estimate D2E/DX2                !
 ! R32   R(11,33)                1.0963         estimate D2E/DX2                !
 ! R33   R(11,34)                1.0961         estimate D2E/DX2                !
 ! R34   R(12,35)                0.9748         estimate D2E/DX2                !
 ! A1    A(2,1,12)             109.6951         estimate D2E/DX2                !
 ! A2    A(2,1,13)             110.9841         estimate D2E/DX2                !
 ! A3    A(2,1,14)             110.0455         estimate D2E/DX2                !
 ! A4    A(12,1,13)            110.0348         estimate D2E/DX2                !
 ! A5    A(12,1,14)            108.1252         estimate D2E/DX2                !
 ! A6    A(13,1,14)            107.8946         estimate D2E/DX2                !
 ! A7    A(1,2,3)              109.658          estimate D2E/DX2                !
 ! A8    A(1,2,15)             108.5089         estimate D2E/DX2                !
 ! A9    A(1,2,16)             109.9848         estimate D2E/DX2                !
 ! A10   A(3,2,15)             108.0177         estimate D2E/DX2                !
 ! A11   A(3,2,16)             112.7783         estimate D2E/DX2                !
 ! A12   A(15,2,16)            107.7705         estimate D2E/DX2                !
 ! A13   A(2,3,4)              112.8997         estimate D2E/DX2                !
 ! A14   A(2,3,8)              111.1407         estimate D2E/DX2                !
 ! A15   A(4,3,8)              114.0481         estimate D2E/DX2                !
 ! A16   A(3,4,5)              115.5475         estimate D2E/DX2                !
 ! A17   A(3,4,17)             108.0433         estimate D2E/DX2                !
 ! A18   A(3,4,18)             106.6759         estimate D2E/DX2                !
 ! A19   A(5,4,17)             108.6606         estimate D2E/DX2                !
 ! A20   A(5,4,18)             111.1978         estimate D2E/DX2                !
 ! A21   A(17,4,18)            106.2857         estimate D2E/DX2                !
 ! A22   A(4,5,6)              113.0028         estimate D2E/DX2                !
 ! A23   A(4,5,19)             110.0844         estimate D2E/DX2                !
 ! A24   A(4,5,20)             110.5079         estimate D2E/DX2                !
 ! A25   A(6,5,19)             109.3745         estimate D2E/DX2                !
 ! A26   A(6,5,20)             107.9317         estimate D2E/DX2                !
 ! A27   A(19,5,20)            105.6555         estimate D2E/DX2                !
 ! A28   A(5,6,7)              113.889          estimate D2E/DX2                !
 ! A29   A(5,6,21)             107.7622         estimate D2E/DX2                !
 ! A30   A(5,6,22)             109.4445         estimate D2E/DX2                !
 ! A31   A(7,6,21)             109.4036         estimate D2E/DX2                !
 ! A32   A(7,6,22)             109.9109         estimate D2E/DX2                !
 ! A33   A(21,6,22)            106.1202         estimate D2E/DX2                !
 ! A34   A(6,7,23)             110.8583         estimate D2E/DX2                !
 ! A35   A(6,7,24)             112.2269         estimate D2E/DX2                !
 ! A36   A(6,7,25)             110.7648         estimate D2E/DX2                !
 ! A37   A(23,7,24)            107.4113         estimate D2E/DX2                !
 ! A38   A(23,7,25)            107.7316         estimate D2E/DX2                !
 ! A39   A(24,7,25)            107.6546         estimate D2E/DX2                !
 ! A40   A(3,8,9)              113.7543         estimate D2E/DX2                !
 ! A41   A(3,8,26)             111.0214         estimate D2E/DX2                !
 ! A42   A(3,8,27)             107.6799         estimate D2E/DX2                !
 ! A43   A(9,8,26)             108.9389         estimate D2E/DX2                !
 ! A44   A(9,8,27)             108.4901         estimate D2E/DX2                !
 ! A45   A(26,8,27)            106.6806         estimate D2E/DX2                !
 ! A46   A(8,9,10)             111.86           estimate D2E/DX2                !
 ! A47   A(8,9,28)             109.6227         estimate D2E/DX2                !
 ! A48   A(8,9,29)             109.7066         estimate D2E/DX2                !
 ! A49   A(10,9,28)            110.1733         estimate D2E/DX2                !
 ! A50   A(10,9,29)            108.1104         estimate D2E/DX2                !
 ! A51   A(28,9,29)            107.2471         estimate D2E/DX2                !
 ! A52   A(9,10,11)            112.5758         estimate D2E/DX2                !
 ! A53   A(9,10,30)            108.8472         estimate D2E/DX2                !
 ! A54   A(9,10,31)            109.4779         estimate D2E/DX2                !
 ! A55   A(11,10,30)           109.3933         estimate D2E/DX2                !
 ! A56   A(11,10,31)           109.7097         estimate D2E/DX2                !
 ! A57   A(30,10,31)           106.6581         estimate D2E/DX2                !
 ! A58   A(10,11,32)           111.3696         estimate D2E/DX2                !
 ! A59   A(10,11,33)           110.9696         estimate D2E/DX2                !
 ! A60   A(10,11,34)           110.838          estimate D2E/DX2                !
 ! A61   A(32,11,33)           107.8878         estimate D2E/DX2                !
 ! A62   A(32,11,34)           107.8441         estimate D2E/DX2                !
 ! A63   A(33,11,34)           107.7805         estimate D2E/DX2                !
 ! A64   A(1,12,35)            102.8588         estimate D2E/DX2                !
 ! D1    D(12,1,2,3)            47.6133         estimate D2E/DX2                !
 ! D2    D(12,1,2,15)          -70.1589         estimate D2E/DX2                !
 ! D3    D(12,1,2,16)          172.1812         estimate D2E/DX2                !
 ! D4    D(13,1,2,3)           -74.1908         estimate D2E/DX2                !
 ! D5    D(13,1,2,15)          168.0369         estimate D2E/DX2                !
 ! D6    D(13,1,2,16)           50.3771         estimate D2E/DX2                !
 ! D7    D(14,1,2,3)           166.4517         estimate D2E/DX2                !
 ! D8    D(14,1,2,15)           48.6794         estimate D2E/DX2                !
 ! D9    D(14,1,2,16)          -68.9804         estimate D2E/DX2                !
 ! D10   D(2,1,12,35)          -31.9492         estimate D2E/DX2                !
 ! D11   D(13,1,12,35)          90.4212         estimate D2E/DX2                !
 ! D12   D(14,1,12,35)        -151.9655         estimate D2E/DX2                !
 ! D13   D(1,2,3,4)           -149.2089         estimate D2E/DX2                !
 ! D14   D(1,2,3,8)             81.1761         estimate D2E/DX2                !
 ! D15   D(15,2,3,4)           -31.1308         estimate D2E/DX2                !
 ! D16   D(15,2,3,8)          -160.7458         estimate D2E/DX2                !
 ! D17   D(16,2,3,4)            87.8603         estimate D2E/DX2                !
 ! D18   D(16,2,3,8)           -41.7547         estimate D2E/DX2                !
 ! D19   D(2,3,4,5)            -72.6106         estimate D2E/DX2                !
 ! D20   D(2,3,4,17)           165.4727         estimate D2E/DX2                !
 ! D21   D(2,3,4,18)            51.5527         estimate D2E/DX2                !
 ! D22   D(8,3,4,5)             55.5029         estimate D2E/DX2                !
 ! D23   D(8,3,4,17)           -66.4138         estimate D2E/DX2                !
 ! D24   D(8,3,4,18)           179.6662         estimate D2E/DX2                !
 ! D25   D(2,3,8,9)           -174.2217         estimate D2E/DX2                !
 ! D26   D(2,3,8,26)            62.4791         estimate D2E/DX2                !
 ! D27   D(2,3,8,27)           -53.9597         estimate D2E/DX2                !
 ! D28   D(4,3,8,9)             56.7723         estimate D2E/DX2                !
 ! D29   D(4,3,8,26)           -66.5269         estimate D2E/DX2                !
 ! D30   D(4,3,8,27)           177.0344         estimate D2E/DX2                !
 ! D31   D(3,4,5,6)           -179.8676         estimate D2E/DX2                !
 ! D32   D(3,4,5,19)            57.5197         estimate D2E/DX2                !
 ! D33   D(3,4,5,20)           -58.8097         estimate D2E/DX2                !
 ! D34   D(17,4,5,6)           -58.2818         estimate D2E/DX2                !
 ! D35   D(17,4,5,19)          179.1055         estimate D2E/DX2                !
 ! D36   D(17,4,5,20)           62.7761         estimate D2E/DX2                !
 ! D37   D(18,4,5,6)            58.3621         estimate D2E/DX2                !
 ! D38   D(18,4,5,19)          -64.2507         estimate D2E/DX2                !
 ! D39   D(18,4,5,20)          179.4199         estimate D2E/DX2                !
 ! D40   D(4,5,6,7)            -68.8514         estimate D2E/DX2                !
 ! D41   D(4,5,6,21)           169.5869         estimate D2E/DX2                !
 ! D42   D(4,5,6,22)            54.6086         estimate D2E/DX2                !
 ! D43   D(19,5,6,7)            54.1562         estimate D2E/DX2                !
 ! D44   D(19,5,6,21)          -67.4054         estimate D2E/DX2                !
 ! D45   D(19,5,6,22)          177.6163         estimate D2E/DX2                !
 ! D46   D(20,5,6,7)           168.641          estimate D2E/DX2                !
 ! D47   D(20,5,6,21)           47.0794         estimate D2E/DX2                !
 ! D48   D(20,5,6,22)          -67.8989         estimate D2E/DX2                !
 ! D49   D(5,6,7,23)          -174.7156         estimate D2E/DX2                !
 ! D50   D(5,6,7,24)            65.177          estimate D2E/DX2                !
 ! D51   D(5,6,7,25)           -55.1757         estimate D2E/DX2                !
 ! D52   D(21,6,7,23)          -54.0687         estimate D2E/DX2                !
 ! D53   D(21,6,7,24)         -174.1761         estimate D2E/DX2                !
 ! D54   D(21,6,7,25)           65.4712         estimate D2E/DX2                !
 ! D55   D(22,6,7,23)           62.0779         estimate D2E/DX2                !
 ! D56   D(22,6,7,24)          -58.0295         estimate D2E/DX2                !
 ! D57   D(22,6,7,25)         -178.3822         estimate D2E/DX2                !
 ! D58   D(3,8,9,10)           173.0694         estimate D2E/DX2                !
 ! D59   D(3,8,9,28)            50.5542         estimate D2E/DX2                !
 ! D60   D(3,8,9,29)           -66.9658         estimate D2E/DX2                !
 ! D61   D(26,8,9,10)          -62.503          estimate D2E/DX2                !
 ! D62   D(26,8,9,28)          174.9818         estimate D2E/DX2                !
 ! D63   D(26,8,9,29)           57.4618         estimate D2E/DX2                !
 ! D64   D(27,8,9,10)           53.265          estimate D2E/DX2                !
 ! D65   D(27,8,9,28)          -69.2502         estimate D2E/DX2                !
 ! D66   D(27,8,9,29)          173.2298         estimate D2E/DX2                !
 ! D67   D(8,9,10,11)          176.5466         estimate D2E/DX2                !
 ! D68   D(8,9,10,30)           55.0868         estimate D2E/DX2                !
 ! D69   D(8,9,10,31)          -61.1458         estimate D2E/DX2                !
 ! D70   D(28,9,10,11)         -61.2527         estimate D2E/DX2                !
 ! D71   D(28,9,10,30)         177.2874         estimate D2E/DX2                !
 ! D72   D(28,9,10,31)          61.0548         estimate D2E/DX2                !
 ! D73   D(29,9,10,11)          55.651          estimate D2E/DX2                !
 ! D74   D(29,9,10,30)         -65.8088         estimate D2E/DX2                !
 ! D75   D(29,9,10,31)         177.9586         estimate D2E/DX2                !
 ! D76   D(9,10,11,32)        -179.9683         estimate D2E/DX2                !
 ! D77   D(9,10,11,33)          59.8208         estimate D2E/DX2                !
 ! D78   D(9,10,11,34)         -59.9014         estimate D2E/DX2                !
 ! D79   D(30,10,11,32)        -58.8198         estimate D2E/DX2                !
 ! D80   D(30,10,11,33)       -179.0307         estimate D2E/DX2                !
 ! D81   D(30,10,11,34)         61.2471         estimate D2E/DX2                !
 ! D82   D(31,10,11,32)         57.855          estimate D2E/DX2                !
 ! D83   D(31,10,11,33)        -62.3559         estimate D2E/DX2                !
 ! D84   D(31,10,11,34)        177.9219         estimate D2E/DX2                !
 --------------------------------------------------------------------------------
 Trust Radius=3.00D-01 FncErr=1.00D-07 GrdErr=1.00D-06 EigMax=2.50D+02 EigMin=1.00D-04
 Number of steps in this run=    210 maximum allowed number of steps=    210.
 GradGradGradGradGradGradGradGradGradGradGradGradGradGradGradGradGradGrad

                          Input orientation:                          
 ---------------------------------------------------------------------
 Center     Atomic      Atomic             Coordinates (Angstroms)
 Number     Number       Type             X           Y           Z
 ---------------------------------------------------------------------
      1          6           0        0.081122    3.201448   -0.399334
      2          6           0        0.796478    1.873413   -0.649961
      3          7           0        0.153755    0.813056    0.128874
      4          6           0        1.089042   -0.241352    0.539041
      5          6           0        1.561158   -1.178359   -0.579383
      6          6           0        2.528102   -2.253425   -0.088686
      7          6           0        3.893022   -1.710834    0.337829
      8          6           0       -1.049055    0.315326   -0.546881
      9          6           0       -1.842235   -0.691369    0.275216
     10          6           0       -3.168641   -1.052259   -0.392551
     11          6           0       -3.939507   -2.124067    0.375802
     12          8           0       -0.104808    3.389320    0.997398
     13          1           0       -0.888538    3.229556   -0.915296
     14          1           0        0.686672    4.030480   -0.776532
     15          1           0        1.831883    1.966035   -0.306129
     16          1           0        0.818943    1.655649   -1.730142
     17          1           0        0.603949   -0.841409    1.318028
     18          1           0        1.936321    0.259669    1.020150
     19          1           0        2.038733   -0.596950   -1.383371
     20          1           0        0.698821   -1.685273   -1.049676
     21          1           0        2.662330   -2.981694   -0.903515
     22          1           0        2.068880   -2.806717    0.742539
     23          1           0        4.576717   -2.529536    0.591209
     24          1           0        3.823871   -1.058409    1.214654
     25          1           0        4.351458   -1.131595   -0.472284
     26          1           0       -0.795863   -0.139360   -1.525852
     27          1           0       -1.693416    1.177057   -0.757355
     28          1           0       -2.021988   -0.286712    1.280618
     29          1           0       -1.257465   -1.615016    0.395224
     30          1           0       -2.967352   -1.408136   -1.412303
     31          1           0       -3.786635   -0.150180   -0.490294
     32          1           0       -4.885280   -2.367776   -0.119672
     33          1           0       -4.169414   -1.788152    1.393691
     34          1           0       -3.352877   -3.046840    0.452328
     35          1           0       -0.214488    2.478229    1.326132
 ---------------------------------------------------------------------
                    Distance matrix (angstroms):
                    1          2          3          4          5
     1  C    0.000000
     2  C    1.529126   0.000000
     3  N    2.447181   1.464252   0.000000
     4  C    3.708008   2.443676   1.467915   0.000000
     5  C    4.626622   3.146908   2.539320   1.533541   0.000000
     6  C    5.986640   4.510470   3.884348   2.552131   1.526935
     7  C    6.261350   4.838506   4.516171   3.172092   2.561718
     8  C    3.103026   2.417489   1.466674   2.461824   3.007551
     9  C    4.394126   3.794320   2.503735   2.977332   3.542680
    10  C    5.353039   4.934368   3.845725   4.433204   4.735167
    11  C    6.717693   6.281846   5.044052   5.371924   5.662513
    12  O    1.421522   2.413314   2.730993   3.849305   5.111299
    13  H    1.098748   2.179175   2.831278   4.251249   5.054064
    14  H    1.093738   2.163565   3.384609   4.487893   5.285414
    15  H    2.144784   1.094926   2.081995   2.477636   3.167834
    16  H    2.169084   1.102142   2.146713   2.969976   3.147496
    17  H    4.423502   3.358617   2.086628   1.096451   2.151733
    18  H    3.756429   2.587022   2.068369   1.095614   2.183387
    19  H    4.385020   2.860731   2.797882   2.173484   1.101141
    20  H    4.968354   3.582395   2.815622   2.182018   1.105334
    21  H    6.719232   5.207471   4.664644   3.473568   2.137676
    22  H    6.430638   5.045957   4.140899   2.753651   2.157964
    23  H    7.350900   5.934363   5.563207   4.171617   3.505647
    24  H    5.895720   4.608414   4.260405   2.933142   2.890126
    25  H    6.084107   4.658275   4.665165   3.529684   2.792746
    26  H    3.633063   2.711824   2.132367   2.797687   2.744243
    27  H    2.715755   2.587666   2.080851   3.381508   4.021431
    28  H    4.405970   4.041909   2.696268   3.198516   4.134437
    29  H    5.061765   4.180937   2.820996   2.722817   3.014161
    30  H    5.618502   5.051351   4.129192   4.650103   4.610201
    31  H    5.118714   5.012519   4.103397   4.983981   5.446465
    32  H    7.467236   7.109941   5.964171   6.375587   6.571348
    33  H    6.795447   6.499512   5.201522   5.547466   6.091332
    34  H    7.180444   6.530014   5.224929   5.254420   5.357554
    35  H    1.894113   2.300608   2.083706   3.116861   4.489381
                    6          7          8          9         10
     6  C    0.000000
     7  C    1.529486   0.000000
     8  C    4.427694   5.414071   0.000000
     9  C    4.655351   5.825496   1.522634   0.000000
    10  C    5.829924   7.129815   2.527202   1.528237   0.000000
    11  C    6.485557   7.843514   3.893160   2.541907   1.527538
    12  O    6.320788   6.513774   3.567329   4.493576   5.571953
    13  H    6.513048   6.988640   2.941808   4.207197   4.879147
    14  H    6.584182   6.669720   4.107050   5.458700   6.391018
    15  H    4.282037   4.264076   3.329055   4.571532   5.841473
    16  H    4.571265   5.005964   2.585728   4.075760   5.002274
    17  H    2.770379   3.540437   2.747425   2.663416   4.147647
    18  H    2.809869   2.859567   3.372114   3.966974   5.456878
    19  H    2.158611   2.764354   3.326620   4.221580   5.320317
    20  H    2.143028   3.482635   2.703751   3.033175   3.973636
    21  H    1.101063   2.161162   4.977138   5.189037   6.163118
    22  H    1.099069   2.166159   4.596877   4.471008   5.638987
    23  H    2.176079   1.096318   6.406075   6.684434   7.946112
    24  H    2.192208   1.095108   5.360556   5.755173   7.174843
    25  H    2.174920   1.096341   5.591483   6.254150   7.520940
    26  H    4.193264   5.284740   1.108706   2.154868   2.783493
    27  H    5.480560   6.383387   1.096394   2.139945   2.698003
    28  H    5.142594   6.156648   2.156108   1.098586   2.168034
    29  H    3.869399   5.151698   2.158059   1.099764   2.142400
    30  H    5.715461   7.086559   2.720136   2.151131   1.098663
    31  H    6.667896   7.880264   2.777452   2.158607   1.097824
    32  H    7.414329   8.814730   4.700869   3.496627   2.179885
    33  H    6.875365   8.131648   4.234038   2.805295   2.175717
    34  H    5.958869   7.368926   4.196448   2.803864   2.173963
    35  H    5.649076   5.949507   2.980408   3.714880   4.913780
                   11         12         13         14         15
    11  C    0.000000
    12  O    6.744534   0.000000
    13  H    6.295762   2.073199   0.000000
    14  H    7.785105   2.045569   1.772575   0.000000
    15  H    7.106540   2.734172   3.060761   2.407223   0.000000
    16  H    6.431493   3.361310   2.461026   2.562555   1.774880
    17  H    4.814145   4.301652   4.877295   5.303709   3.468061
    18  H    6.373597   3.736501   4.532770   4.359897   2.163702
    19  H    6.416084   5.114018   4.840471   4.858954   2.787854
    20  H    4.872229   5.530626   5.166557   5.722289   3.894707
    21  H    6.779117   7.201413   7.154609   7.286284   5.052379
    22  H    6.058153   6.571206   6.923246   7.139001   4.892344
    23  H    8.528592   7.557415   8.081195   7.748353   5.343172
    24  H    7.880948   5.938351   6.717896   6.301082   3.927857
    25  H    8.393113   6.515899   6.831797   6.338000   3.996396
    26  H    4.175865   4.392713   3.425049   4.488536   3.581265
    27  H    4.150469   3.239898   2.210323   3.715805   3.640580
    28  H    2.805609   4.155599   4.297777   5.496076   4.737611
    29  H    2.729993   5.170552   5.032241   6.084760   4.781202
    30  H    2.157536   6.084111   5.106532   6.582905   5.970034
    31  H    2.160954   5.319505   4.472383   6.129464   6.006665
    32  H    1.095160   7.566037   6.923662   8.509747   7.996059
    33  H    1.096264   6.594262   6.424404   7.883395   7.280033
    34  H    1.096130   7.229883   6.880153   8.241147   7.251614
    35  H    5.996668   0.974773   2.458218   2.764556   2.667256
                   16         17         18         19         20
    16  H    0.000000
    17  H    3.946246   0.000000
    18  H    3.280457   1.753944   0.000000
    19  H    2.585022   3.068537   2.553664   0.000000
    20  H    3.411631   2.515379   3.098126   1.758170   0.000000
    21  H    5.058294   3.708504   3.838491   2.511203   2.357422
    22  H    5.252543   2.517865   3.081779   3.066508   2.519272
    23  H    6.084843   4.377319   3.864628   3.751695   4.294573
    24  H    5.006748   3.228881   2.310413   3.185812   3.909742
    25  H    4.672216   4.163322   3.161623   2.542562   3.739211
    26  H    2.423095   3.246537   3.755819   2.874826   2.202424
    27  H    2.736295   3.695850   4.144408   4.179466   3.741815
    28  H    4.572563   2.684145   4.004321   4.866471   3.845653
    29  H    4.418812   2.216957   3.755695   3.881337   2.433049
    30  H    4.880966   4.531013   5.722273   5.071464   3.694473
    31  H    5.099960   4.798443   5.933097   5.910339   4.773755
    32  H    7.163778   5.876088   7.398439   7.257735   5.702009
    33  H    6.819223   4.866933   6.450822   6.904500   5.447966
    34  H    6.654372   4.611923   6.263469   6.200098   4.530578
    35  H    3.329479   3.419050   3.105095   4.677086   4.879892
                   21         22         23         24         25
    21  H    0.000000
    22  H    1.758492   0.000000
    23  H    2.470531   2.527642   0.000000
    24  H    3.087854   2.521798   1.766260   0.000000
    25  H    2.542042   3.080907   1.770875   1.769029   0.000000
    26  H    4.519432   4.524063   6.249760   5.449492   5.346910
    27  H    6.024043   5.681110   7.407565   6.271091   6.477009
    28  H    5.828911   4.834786   7.003460   5.896943   6.663881
    29  H    4.349635   3.550401   5.908675   5.176993   5.696164
    30  H    5.867561   5.653583   7.885720   7.289988   7.384111
    31  H    7.055308   6.547070   8.762228   7.851849   8.197076
    32  H    7.612997   7.021141   9.490042   8.907535   9.325760
    33  H    7.305780   6.354352   8.814104   8.028523   8.747468
    34  H    6.166463   5.434826   7.947663   7.486034   7.992487
    35  H    6.561872   5.786623   6.969467   5.369225   6.092043
                   26         27         28         29         30
    26  H    0.000000
    27  H    1.768938   0.000000
    28  H    3.066165   2.530595   0.000000
    29  H    2.466003   3.051911   1.769974   0.000000
    30  H    2.517548   2.955519   3.066452   2.496731   0.000000
    31  H    3.164998   2.492879   2.503747   3.053946   1.761754
    32  H    4.864824   4.812533   3.806584   3.740696   2.504047
    33  H    4.756374   4.421542   2.622698   3.083238   3.076194
    34  H    4.347983   4.696642   3.174214   2.538530   2.512136
    35  H    3.914535   2.867263   3.303638   4.325395   5.493735
                   31         32         33         34         35
    31  H    0.000000
    32  H    2.502422   0.000000
    33  H    2.525643   1.771636   0.000000
    34  H    3.076901   1.771037   1.771212   0.000000
    35  H    4.792512   6.884069   5.817904   6.414001   0.000000
 Stoichiometry    C10H23NO(1-,2)
 Framework group  C1[X(C10H23NO)]
 Deg. of freedom    99
 Full point group                 C1      NOp   1
 Largest Abelian subgroup         C1      NOp   1
 Largest concise Abelian subgroup C1      NOp   1
                         Standard orientation:                         
 ---------------------------------------------------------------------
 Center     Atomic      Atomic             Coordinates (Angstroms)
 Number     Number       Type             X           Y           Z
 ---------------------------------------------------------------------
      1          6           0        0.081122    3.201448   -0.399334
      2          6           0        0.796478    1.873413   -0.649961
      3          7           0        0.153755    0.813056    0.128874
      4          6           0        1.089042   -0.241352    0.539041
      5          6           0        1.561158   -1.178359   -0.579383
      6          6           0        2.528102   -2.253425   -0.088686
      7          6           0        3.893022   -1.710834    0.337829
      8          6           0       -1.049055    0.315326   -0.546881
      9          6           0       -1.842235   -0.691369    0.275216
     10          6           0       -3.168641   -1.052259   -0.392551
     11          6           0       -3.939507   -2.124067    0.375802
     12          8           0       -0.104808    3.389320    0.997398
     13          1           0       -0.888538    3.229556   -0.915296
     14          1           0        0.686672    4.030480   -0.776532
     15          1           0        1.831883    1.966035   -0.306129
     16          1           0        0.818943    1.655649   -1.730142
     17          1           0        0.603949   -0.841409    1.318028
     18          1           0        1.936321    0.259669    1.020150
     19          1           0        2.038733   -0.596950   -1.383371
     20          1           0        0.698821   -1.685273   -1.049676
     21          1           0        2.662330   -2.981694   -0.903515
     22          1           0        2.068880   -2.806717    0.742539
     23          1           0        4.576717   -2.529536    0.591209
     24          1           0        3.823871   -1.058409    1.214654
     25          1           0        4.351458   -1.131595   -0.472284
     26          1           0       -0.795863   -0.139360   -1.525852
     27          1           0       -1.693416    1.177057   -0.757355
     28          1           0       -2.021988   -0.286712    1.280618
     29          1           0       -1.257465   -1.615016    0.395224
     30          1           0       -2.967352   -1.408136   -1.412303
     31          1           0       -3.786635   -0.150180   -0.490294
     32          1           0       -4.885280   -2.367776   -0.119672
     33          1           0       -4.169414   -1.788152    1.393691
     34          1           0       -3.352877   -3.046840    0.452328
     35          1           0       -0.214488    2.478229    1.326132
 ---------------------------------------------------------------------
 Rotational constants (GHZ):           0.7177539           0.5604496           0.3423207
 Standard basis: 6-31+G(d,p) (6D, 7F)
 There are   343 symmetry adapted cartesian basis functions of A   symmetry.
 There are   343 symmetry adapted basis functions of A   symmetry.
   343 basis functions,   545 primitive gaussians,   343 cartesian basis functions
    50 alpha electrons       49 beta electrons
       nuclear repulsion energy       770.1132378409 Hartrees.
 NAtoms=   35 NActive=   35 NUniq=   35 SFac= 1.00D+00 NAtFMM=   60 NAOKFM=F Big=F
 Integral buffers will be    131072 words long.
 Raffenetti 2 integral format.
 Two-electron integral symmetry is turned on.
 Nuclear repulsion after empirical dispersion term =      770.0860647684 Hartrees.
 ------------------------------------------------------------------------------
 Polarizable Continuum Model (PCM)
 =================================
 Model                : PCM.
 Atomic radii         : SMD-Coulomb.
 Polarization charges : Total charges.
 Charge compensation  : None.
 Solution method      : On-the-fly selection.
 Cavity type          : VdW (van der Waals Surface) (Alpha=1.000).
 Cavity algorithm     : GePol (No added spheres)
                        Default sphere list used, NSphG=   35.
                        Lebedev-Laikov grids with approx.  5.0 points / Ang**2.
                        Smoothing algorithm: York/Karplus (Gamma=1.0000).
                        Polarization charges: spherical gaussians, with
                                              point-specific exponents (IZeta= 3).
                        Self-potential: point-specific (ISelfS= 7).
                        Self-field    : sphere-specific E.n sum rule (ISelfD= 2).
 1st derivatives      : Analytical E(r).r(x)/FMM algorithm (CHGder, D1EAlg=3).
                        Cavity 1st derivative terms included.
 Solvent              : Acetonitrile, Eps=  35.688000 Eps(inf)=   1.806874
 ------------------------------------------------------------------------------
 ------------------------------------------------------------------------------
 Atomic radii for non-electrostatic terms: SMD-CDS.
 ------------------------------------------------------------------------------
 Nuclear repulsion after PCM non-electrostatic terms =      770.0814789609 Hartrees.
 One-electron integrals computed using PRISM.
 NBasis=   343 RedAO= T EigKep=  1.17D-05  NBF=   343
 NBsUse=   343 1.00D-06 EigRej= -1.00D+00 NBFU=   343
 ExpMin= 4.38D-02 ExpMax= 5.48D+03 ExpMxC= 8.25D+02 IAcc=3 IRadAn=         5 AccDes= 0.00D+00
 Harris functional with IExCor= 4639 and IRadAn=       5 diagonalized for initial guess.
 HarFok:  IExCor= 4639 AccDes= 0.00D+00 IRadAn=         5 IDoV= 1 UseB2=F ITyADJ=14
 ICtDFT=  3500011 ScaDFX=  1.000000  1.000000  1.000000  1.000000
 FoFCou: FMM=F IPFlag=           0 FMFlag=      100000 FMFlg1=           0
         NFxFlg=           0 DoJE=T BraDBF=F KetDBF=T FulRan=T
         wScrn=  0.000000 ICntrl=       500 IOpCl=  0 I1Cent=   200000004 NGrid=           0
         NMat0=    1 NMatS0=      1 NMatT0=    0 NMatD0=    1 NMtDS0=    0 NMtDT0=    0
 Petite list used in FoFCou.
 Initial guess <Sx>= 0.0000 <Sy>= 0.0000 <Sz>= 0.5000 <S**2>= 0.7500 S= 0.5000
 Requested convergence on RMS density matrix=1.00D-08 within 500 cycles.
 Requested convergence on MAX density matrix=1.00D-06.
 Requested convergence on             energy=1.00D-06.
 No special actions if energy rises.
 Inv3:  Mode=1 IEnd=    16022163.
 Iteration    1 A*A^-1 deviation from unit magnitude is 5.11D-15 for   2299.
 Iteration    1 A*A^-1 deviation from orthogonality  is 2.12D-15 for   2309   2231.
 Iteration    1 A^-1*A deviation from unit magnitude is 5.11D-15 for   2299.
 Iteration    1 A^-1*A deviation from orthogonality  is 2.00D-15 for   2291   2112.
 Restarting incremental Fock formation.
 Restarting incremental Fock formation.
 Restarting incremental Fock formation.
 Restarting incremental Fock formation.
 Restarting incremental Fock formation.
 Restarting incremental Fock formation.
 Restarting incremental Fock formation.
 Restarting incremental Fock formation.
 Restarting incremental Fock formation.
 Restarting incremental Fock formation.
 Restarting incremental Fock formation.
 Restarting incremental Fock formation.
 Restarting incremental Fock formation.
 Restarting incremental Fock formation.
 Restarting incremental Fock formation.
 Restarting incremental Fock formation.
 Restarting incremental Fock formation.
 Restarting incremental Fock formation.
 Restarting incremental Fock formation.
 Restarting incremental Fock formation.
 Restarting incremental Fock formation.
 Restarting incremental Fock formation.
 Restarting incremental Fock formation.
 Error on total polarization charges =  0.16207
 SCF Done:  E(UwB97XD) =  -524.787398542     A.U. after  464 cycles
            NFock=464  Conv=0.33D-08     -V/T= 2.0095
 <Sx>= 0.0000 <Sy>= 0.0000 <Sz>= 0.5000 <S**2>= 0.7504 S= 0.5002
 <L.S>= 0.000000000000E+00
 SMD-CDS (non-electrostatic) energy       (kcal/mol) =      -2.88
 (included in total energy above)
 Annihilation of the first spin contaminant:
 S**2 before annihilation     0.7504,   after     0.7500

 **********************************************************************

            Population analysis using the SCF Density.

 **********************************************************************

 Orbital symmetries:
 Alpha Orbitals:
       Occupied  (A) (A) (A) (A) (A) (A) (A) (A) (A) (A) (A) (A)
                 (A) (A) (A) (A) (A) (A) (A) (A) (A) (A) (A) (A)
                 (A) (A) (A) (A) (A) (A) (A) (A) (A) (A) (A) (A)
                 (A) (A) (A) (A) (A) (A) (A) (A) (A) (A) (A) (A)
                 (A) (A)
       Virtual   (A) (A) (A) (A) (A) (A) (A) (A) (A) (A) (A) (A)
                 (A) (A) (A) (A) (A) (A) (A) (A) (A) (A) (A) (A)
                 (A) (A) (A) (A) (A) (A) (A) (A) (A) (A) (A) (A)
                 (A) (A) (A) (A) (A) (A) (A) (A) (A) (A) (A) (A)
                 (A) (A) (A) (A) (A) (A) (A) (A) (A) (A) (A) (A)
                 (A) (A) (A) (A) (A) (A) (A) (A) (A) (A) (A) (A)
                 (A) (A) (A) (A) (A) (A) (A) (A) (A) (A) (A) (A)
                 (A) (A) (A) (A) (A) (A) (A) (A) (A) (A) (A) (A)
                 (A) (A) (A) (A) (A) (A) (A) (A) (A) (A) (A) (A)
                 (A) (A) (A) (A) (A) (A) (A) (A) (A) (A) (A) (A)
                 (A) (A) (A) (A) (A) (A) (A) (A) (A) (A) (A) (A)
                 (A) (A) (A) (A) (A) (A) (A) (A) (A) (A) (A) (A)
                 (A) (A) (A) (A) (A) (A) (A) (A) (A) (A) (A) (A)
                 (A) (A) (A) (A) (A) (A) (A) (A) (A) (A) (A) (A)
                 (A) (A) (A) (A) (A) (A) (A) (A) (A) (A) (A) (A)
                 (A) (A) (A) (A) (A) (A) (A) (A) (A) (A) (A) (A)
                 (A) (A) (A) (A) (A) (A) (A) (A) (A) (A) (A) (A)
                 (A) (A) (A) (A) (A) (A) (A) (A) (A) (A) (A) (A)
                 (A) (A) (A) (A) (A) (A) (A) (A) (A) (A) (A) (A)
                 (A) (A) (A) (A) (A) (A) (A) (A) (A) (A) (A) (A)
                 (A) (A) (A) (A) (A) (A) (A) (A) (A) (A) (A) (A)
                 (A) (A) (A) (A) (A) (A) (A) (A) (A) (A) (A) (A)
                 (A) (A) (A) (A) (A) (A) (A) (A) (A) (A) (A) (A)
                 (A) (A) (A) (A) (A) (A) (A) (A) (A) (A) (A) (A)
                 (A) (A) (A) (A) (A)
 Beta  Orbitals:
       Occupied  (A) (A) (A) (A) (A) (A) (A) (A) (A) (A) (A) (A)
                 (A) (A) (A) (A) (A) (A) (A) (A) (A) (A) (A) (A)
                 (A) (A) (A) (A) (A) (A) (A) (A) (A) (A) (A) (A)
                 (A) (A) (A) (A) (A) (A) (A) (A) (A) (A) (A) (A)
                 (A)
       Virtual   (A) (A) (A) (A) (A) (A) (A) (A) (A) (A) (A) (A)
                 (A) (A) (A) (A) (A) (A) (A) (A) (A) (A) (A) (A)
                 (A) (A) (A) (A) (A) (A) (A) (A) (A) (A) (A) (A)
                 (A) (A) (A) (A) (A) (A) (A) (A) (A) (A) (A) (A)
                 (A) (A) (A) (A) (A) (A) (A) (A) (A) (A) (A) (A)
                 (A) (A) (A) (A) (A) (A) (A) (A) (A) (A) (A) (A)
                 (A) (A) (A) (A) (A) (A) (A) (A) (A) (A) (A) (A)
                 (A) (A) (A) (A) (A) (A) (A) (A) (A) (A) (A) (A)
                 (A) (A) (A) (A) (A) (A) (A) (A) (A) (A) (A) (A)
                 (A) (A) (A) (A) (A) (A) (A) (A) (A) (A) (A) (A)
                 (A) (A) (A) (A) (A) (A) (A) (A) (A) (A) (A) (A)
                 (A) (A) (A) (A) (A) (A) (A) (A) (A) (A) (A) (A)
                 (A) (A) (A) (A) (A) (A) (A) (A) (A) (A) (A) (A)
                 (A) (A) (A) (A) (A) (A) (A) (A) (A) (A) (A) (A)
                 (A) (A) (A) (A) (A) (A) (A) (A) (A) (A) (A) (A)
                 (A) (A) (A) (A) (A) (A) (A) (A) (A) (A) (A) (A)
                 (A) (A) (A) (A) (A) (A) (A) (A) (A) (A) (A) (A)
                 (A) (A) (A) (A) (A) (A) (A) (A) (A) (A) (A) (A)
                 (A) (A) (A) (A) (A) (A) (A) (A) (A) (A) (A) (A)
                 (A) (A) (A) (A) (A) (A) (A) (A) (A) (A) (A) (A)
                 (A) (A) (A) (A) (A) (A) (A) (A) (A) (A) (A) (A)
                 (A) (A) (A) (A) (A) (A) (A) (A) (A) (A) (A) (A)
                 (A) (A) (A) (A) (A) (A) (A) (A) (A) (A) (A) (A)
                 (A) (A) (A) (A) (A) (A) (A) (A) (A) (A) (A) (A)
                 (A) (A) (A) (A) (A) (A)
 The electronic state is 2-A.
 Alpha  occ. eigenvalues --  -19.26156 -14.44079 -10.32680 -10.30788 -10.30310
 Alpha  occ. eigenvalues --  -10.30095 -10.27970 -10.27377 -10.27252 -10.27205
 Alpha  occ. eigenvalues --  -10.27089 -10.26577  -1.11165  -1.01302  -0.88272
 Alpha  occ. eigenvalues --   -0.87504  -0.82710  -0.80967  -0.77404  -0.72979
 Alpha  occ. eigenvalues --   -0.71187  -0.66607  -0.66156  -0.62979  -0.58522
 Alpha  occ. eigenvalues --   -0.56511  -0.54650  -0.54297  -0.53483  -0.51614
 Alpha  occ. eigenvalues --   -0.50394  -0.49706  -0.48901  -0.47633  -0.46880
 Alpha  occ. eigenvalues --   -0.45639  -0.44686  -0.43940  -0.42881  -0.41547
 Alpha  occ. eigenvalues --   -0.40668  -0.40257  -0.39655  -0.39210  -0.38727
 Alpha  occ. eigenvalues --   -0.38690  -0.38239  -0.34636  -0.28801  -0.07258
 Alpha virt. eigenvalues --    0.07553   0.07974   0.08708   0.09563   0.09965
 Alpha virt. eigenvalues --    0.10251   0.10762   0.11500   0.11851   0.12442
 Alpha virt. eigenvalues --    0.13412   0.13892   0.13980   0.14436   0.14779
 Alpha virt. eigenvalues --    0.15604   0.16065   0.16286   0.16699   0.18086
 Alpha virt. eigenvalues --    0.18234   0.18591   0.18747   0.19901   0.20244
 Alpha virt. eigenvalues --    0.20929   0.21534   0.21902   0.22528   0.22991
 Alpha virt. eigenvalues --    0.23637   0.24247   0.24892   0.25605   0.26300
 Alpha virt. eigenvalues --    0.26418   0.26858   0.27519   0.27658   0.28235
 Alpha virt. eigenvalues --    0.28938   0.29113   0.29916   0.30731   0.31087
 Alpha virt. eigenvalues --    0.31353   0.31657   0.32040   0.32337   0.33499
 Alpha virt. eigenvalues --    0.34157   0.34491   0.35134   0.35416   0.35767
 Alpha virt. eigenvalues --    0.36271   0.36884   0.36916   0.37255   0.37921
 Alpha virt. eigenvalues --    0.38285   0.38848   0.40063   0.40800   0.41339
 Alpha virt. eigenvalues --    0.42283   0.42521   0.42982   0.43260   0.44316
 Alpha virt. eigenvalues --    0.44932   0.45376   0.45937   0.46951   0.47161
 Alpha virt. eigenvalues --    0.48173   0.49229   0.50910   0.52176   0.54982
 Alpha virt. eigenvalues --    0.59214   0.70930   0.72742   0.73212   0.74031
 Alpha virt. eigenvalues --    0.75301   0.75772   0.76246   0.77207   0.77686
 Alpha virt. eigenvalues --    0.78656   0.80256   0.81399   0.81660   0.82260
 Alpha virt. eigenvalues --    0.82928   0.84191   0.84870   0.85439   0.86306
 Alpha virt. eigenvalues --    0.88539   0.91103   0.93034   0.94538   0.95696
 Alpha virt. eigenvalues --    0.97920   0.99316   1.01512   1.03045   1.03323
 Alpha virt. eigenvalues --    1.04233   1.04727   1.05176   1.06869   1.08482
 Alpha virt. eigenvalues --    1.09460   1.10087   1.11894   1.12219   1.13213
 Alpha virt. eigenvalues --    1.14842   1.16033   1.16824   1.18881   1.20039
 Alpha virt. eigenvalues --    1.20772   1.21815   1.22878   1.22991   1.23309
 Alpha virt. eigenvalues --    1.24175   1.24900   1.24968   1.26454   1.26594
 Alpha virt. eigenvalues --    1.28350   1.29311   1.32331   1.32453   1.35158
 Alpha virt. eigenvalues --    1.36365   1.41327   1.42940   1.44629   1.46533
 Alpha virt. eigenvalues --    1.48047   1.50629   1.51915   1.53641   1.55366
 Alpha virt. eigenvalues --    1.57361   1.60472   1.62244   1.63828   1.67824
 Alpha virt. eigenvalues --    1.70157   1.71969   1.73402   1.75210   1.77337
 Alpha virt. eigenvalues --    1.78723   1.79532   1.80190   1.82623   1.85206
 Alpha virt. eigenvalues --    1.90005   1.91636   1.94460   1.95618   1.97875
 Alpha virt. eigenvalues --    1.98645   1.99892   2.01223   2.02140   2.03967
 Alpha virt. eigenvalues --    2.04551   2.05180   2.07933   2.08325   2.09950
 Alpha virt. eigenvalues --    2.10959   2.13180   2.13729   2.14808   2.15408
 Alpha virt. eigenvalues --    2.16712   2.18226   2.20678   2.21897   2.22319
 Alpha virt. eigenvalues --    2.23172   2.23397   2.24286   2.24562   2.26158
 Alpha virt. eigenvalues --    2.27592   2.28748   2.29431   2.30891   2.33495
 Alpha virt. eigenvalues --    2.34570   2.36799   2.37331   2.38228   2.38784
 Alpha virt. eigenvalues --    2.40010   2.41588   2.42666   2.42750   2.44609
 Alpha virt. eigenvalues --    2.46179   2.48224   2.50034   2.52443   2.54010
 Alpha virt. eigenvalues --    2.56100   2.57476   2.59706   2.61556   2.62938
 Alpha virt. eigenvalues --    2.64298   2.64619   2.68026   2.70495   2.71876
 Alpha virt. eigenvalues --    2.72546   2.76059   2.77887   2.78561   2.80830
 Alpha virt. eigenvalues --    2.82244   2.82957   2.83495   2.85584   2.87008
 Alpha virt. eigenvalues --    2.87396   2.88269   2.90486   2.91501   2.92326
 Alpha virt. eigenvalues --    2.93518   2.95663   2.96992   2.98385   2.98869
 Alpha virt. eigenvalues --    3.00177   3.01090   3.02221   3.02729   3.03267
 Alpha virt. eigenvalues --    3.04034   3.04895   3.06679   3.07418   3.09312
 Alpha virt. eigenvalues --    3.13111   3.14984   3.19207   3.35502   3.36717
 Alpha virt. eigenvalues --    3.42689   3.43599   3.44481   3.44989   3.46030
 Alpha virt. eigenvalues --    3.46882   3.47910   3.49955   3.53238   3.55435
 Alpha virt. eigenvalues --    3.57299   3.58214   3.59925   3.61036   3.62878
 Alpha virt. eigenvalues --    3.65041   3.66841   3.68324   3.71158   3.73862
 Alpha virt. eigenvalues --    3.74081   4.37950   4.44676   4.46972   4.50775
 Alpha virt. eigenvalues --    4.60612   4.62586   4.64259   4.73163   4.76906
 Alpha virt. eigenvalues --    4.82648   4.86133   4.89638
  Beta  occ. eigenvalues --  -19.26156 -14.44071 -10.32678 -10.30787 -10.30301
  Beta  occ. eigenvalues --  -10.30090 -10.27960 -10.27318 -10.27240 -10.27110
  Beta  occ. eigenvalues --  -10.27083 -10.26461  -1.11164  -1.01274  -0.88202
  Beta  occ. eigenvalues --   -0.87376  -0.82688  -0.80912  -0.77324  -0.72878
  Beta  occ. eigenvalues --   -0.71158  -0.66513  -0.66007  -0.62848  -0.58500
  Beta  occ. eigenvalues --   -0.56451  -0.54597  -0.54262  -0.53453  -0.51471
  Beta  occ. eigenvalues --   -0.50355  -0.49679  -0.48820  -0.47550  -0.46838
  Beta  occ. eigenvalues --   -0.45570  -0.44652  -0.43905  -0.42812  -0.41512
  Beta  occ. eigenvalues --   -0.40641  -0.40159  -0.39611  -0.39148  -0.38680
  Beta  occ. eigenvalues --   -0.38558  -0.38148  -0.34634  -0.28769
  Beta virt. eigenvalues --    0.08248   0.08575   0.09326   0.09434   0.10361
  Beta virt. eigenvalues --    0.10742   0.11392   0.11871   0.12263   0.12949
  Beta virt. eigenvalues --    0.13772   0.14508   0.14597   0.15028   0.15399
  Beta virt. eigenvalues --    0.15808   0.16591   0.17172   0.17275   0.18600
  Beta virt. eigenvalues --    0.18817   0.19034   0.19568   0.20014   0.20691
  Beta virt. eigenvalues --    0.20941   0.21800   0.22291   0.22919   0.23606
  Beta virt. eigenvalues --    0.24081   0.25098   0.25481   0.26225   0.26434
  Beta virt. eigenvalues --    0.27109   0.27579   0.27742   0.28506   0.28805
  Beta virt. eigenvalues --    0.29328   0.29516   0.30143   0.30535   0.31363
  Beta virt. eigenvalues --    0.31484   0.31800   0.32443   0.32739   0.33257
  Beta virt. eigenvalues --    0.33820   0.34779   0.35015   0.35525   0.35883
  Beta virt. eigenvalues --    0.36274   0.36602   0.37300   0.37445   0.37772
  Beta virt. eigenvalues --    0.38386   0.39037   0.39284   0.40582   0.41336
  Beta virt. eigenvalues --    0.41669   0.42999   0.43212   0.43429   0.43715
  Beta virt. eigenvalues --    0.44612   0.45461   0.45515   0.46510   0.47101
  Beta virt. eigenvalues --    0.47791   0.48660   0.49611   0.51010   0.52331
  Beta virt. eigenvalues --    0.55042   0.59251   0.71121   0.73383   0.73443
  Beta virt. eigenvalues --    0.74373   0.75466   0.76142   0.76587   0.77483
  Beta virt. eigenvalues --    0.77867   0.79003   0.80366   0.81521   0.81757
  Beta virt. eigenvalues --    0.82299   0.83120   0.84279   0.85065   0.85562
  Beta virt. eigenvalues --    0.86409   0.88690   0.91193   0.93071   0.94604
  Beta virt. eigenvalues --    0.95803   0.98042   0.99410   1.01659   1.03124
  Beta virt. eigenvalues --    1.03458   1.04333   1.04782   1.05396   1.06966
  Beta virt. eigenvalues --    1.08572   1.09561   1.10197   1.12062   1.12280
  Beta virt. eigenvalues --    1.13371   1.15101   1.16241   1.17078   1.19051
  Beta virt. eigenvalues --    1.20109   1.21077   1.22023   1.23092   1.23203
  Beta virt. eigenvalues --    1.23469   1.24385   1.25051   1.25156   1.26674
  Beta virt. eigenvalues --    1.26746   1.28511   1.29389   1.32343   1.32498
  Beta virt. eigenvalues --    1.35208   1.36400   1.41411   1.43002   1.44674
  Beta virt. eigenvalues --    1.46566   1.48088   1.50665   1.51938   1.53682
  Beta virt. eigenvalues --    1.55408   1.57401   1.60492   1.62300   1.63847
  Beta virt. eigenvalues --    1.67898   1.70184   1.71991   1.73399   1.75227
  Beta virt. eigenvalues --    1.77362   1.78752   1.79545   1.80214   1.82655
  Beta virt. eigenvalues --    1.85286   1.90048   1.91693   1.94500   1.95670
  Beta virt. eigenvalues --    1.97928   1.98743   2.00022   2.01308   2.02206
  Beta virt. eigenvalues --    2.04040   2.04631   2.05228   2.07987   2.08370
  Beta virt. eigenvalues --    2.10090   2.11001   2.13207   2.13760   2.14825
  Beta virt. eigenvalues --    2.15403   2.16729   2.18243   2.20727   2.21930
  Beta virt. eigenvalues --    2.22349   2.23195   2.23441   2.24347   2.24621
  Beta virt. eigenvalues --    2.26178   2.27624   2.28838   2.29486   2.30947
  Beta virt. eigenvalues --    2.33537   2.34601   2.36807   2.37334   2.38219
  Beta virt. eigenvalues --    2.38798   2.40038   2.41594   2.42703   2.42761
  Beta virt. eigenvalues --    2.44619   2.46195   2.48236   2.50070   2.52468
  Beta virt. eigenvalues --    2.54018   2.56119   2.57496   2.59733   2.61568
  Beta virt. eigenvalues --    2.62971   2.64317   2.64631   2.68056   2.70542
  Beta virt. eigenvalues --    2.71912   2.72561   2.76066   2.77905   2.78608
  Beta virt. eigenvalues --    2.80870   2.82273   2.82976   2.83521   2.85604
  Beta virt. eigenvalues --    2.87028   2.87449   2.88293   2.90510   2.91517
  Beta virt. eigenvalues --    2.92353   2.93553   2.95692   2.97031   2.98397
  Beta virt. eigenvalues --    2.98892   3.00214   3.01115   3.02267   3.02759
  Beta virt. eigenvalues --    3.03284   3.04047   3.04941   3.06707   3.07463
  Beta virt. eigenvalues --    3.09333   3.13130   3.14995   3.19213   3.35540
  Beta virt. eigenvalues --    3.36755   3.42705   3.43656   3.44509   3.45064
  Beta virt. eigenvalues --    3.46191   3.46924   3.47987   3.50010   3.53291
  Beta virt. eigenvalues --    3.55556   3.57321   3.58243   3.59951   3.61060
  Beta virt. eigenvalues --    3.62951   3.65054   3.66873   3.68362   3.71232
  Beta virt. eigenvalues --    3.73941   3.74103   4.37958   4.44724   4.47047
  Beta virt. eigenvalues --    4.50859   4.60639   4.62640   4.64363   4.73189
  Beta virt. eigenvalues --    4.77006   4.82656   4.86264   4.89732
          Condensed to atoms (all electrons):
               1          2          3          4          5          6
     1  C    8.528721  -2.594709   0.382990   0.769868  -1.384341  -1.291671
     2  C   -2.594709   8.069667  -0.369575  -0.377276   0.707966  -0.135464
     3  N    0.382990  -0.369575   7.518421   0.083119  -0.079919  -0.025435
     4  C    0.769868  -0.377276   0.083119  10.980166  -3.240941 -11.607369
     5  C   -1.384341   0.707966  -0.079919  -3.240941   8.926441   4.102634
     6  C   -1.291671  -0.135464  -0.025435 -11.607369   4.102634  56.855366
     7  C    0.914524   0.123607  -0.009902   9.308583  -3.000368 -42.533897
     8  C   -0.377813   0.193571   0.188337  -0.375916   0.222951   0.122303
     9  C    0.388612  -0.254684  -0.004354   0.348911  -0.436916  -0.706810
    10  C    0.142637  -0.084437  -0.029587   0.290785  -0.343690  -0.209418
    11  C    0.002875  -0.008917  -0.010499   0.019443  -0.013278  -0.014222
    12  O   -0.032749   0.133123  -0.060751  -0.027516   0.050373   0.022563
    13  H    0.400957  -0.026671  -0.010993  -0.008607   0.004954   0.000537
    14  H    0.456763  -0.086904   0.008941   0.002226   0.001185   0.001099
    15  H   -0.039165   0.412723  -0.057761   0.004151   0.001809   0.006239
    16  H    0.000436   0.356285  -0.034253  -0.028544   0.014954   0.008588
    17  H   -0.002920   0.011657  -0.047932   0.400805  -0.037566  -0.004165
    18  H   -0.021295  -0.017946  -0.063638   0.385234  -0.006362   0.090415
    19  H    0.017065   0.002519  -0.000363   0.031539   0.330046  -0.246764
    20  H    0.005890   0.002837  -0.007640   0.015555   0.373680  -0.180627
    21  H    0.000557   0.002223   0.000146   0.034721  -0.050888   0.281455
    22  H    0.000928   0.000481  -0.003934   0.047030  -0.078662   0.259835
    23  H    0.000024   0.000320   0.000118   0.004075   0.026787  -0.137868
    24  H   -0.001457   0.000274   0.000151  -0.034738   0.011013   0.146325
    25  H   -0.000548  -0.001746  -0.000557  -0.018626   0.009723   0.084250
    26  H    0.022376  -0.021740  -0.055603  -0.003779  -0.010494  -0.011031
    27  H   -0.030936   0.009276  -0.075863   0.009037   0.000273  -0.000131
    28  H   -0.002187   0.004043   0.020112  -0.006016   0.010264   0.001754
    29  H   -0.004323  -0.002243  -0.009254  -0.022224   0.016792   0.006471
    30  H   -0.002657   0.000084   0.003326  -0.004285   0.009649  -0.000103
    31  H   -0.003435   0.002573  -0.001971  -0.005886   0.003387   0.000071
    32  H   -0.000048  -0.000078   0.000063  -0.000159   0.000252  -0.000060
    33  H   -0.000162  -0.000043  -0.000064   0.000785   0.000801  -0.000144
    34  H   -0.000197   0.000013   0.000277  -0.004813   0.002941  -0.000418
    35  H    0.000936  -0.067336   0.070923  -0.000415   0.008557   0.003870
               7          8          9         10         11         12
     1  C    0.914524  -0.377813   0.388612   0.142637   0.002875  -0.032749
     2  C    0.123607   0.193571  -0.254684  -0.084437  -0.008917   0.133123
     3  N   -0.009902   0.188337  -0.004354  -0.029587  -0.010499  -0.060751
     4  C    9.308583  -0.375916   0.348911   0.290785   0.019443  -0.027516
     5  C   -3.000368   0.222951  -0.436916  -0.343690  -0.013278   0.050373
     6  C  -42.533897   0.122303  -0.706810  -0.209418  -0.014222   0.022563
     7  C   41.151712  -0.097062   0.517481   0.187732   0.013634  -0.015261
     8  C   -0.097062   6.245590  -0.562762   0.066361  -0.079500   0.030365
     9  C    0.517481  -0.562762   6.414801  -0.132595   0.116915  -0.031101
    10  C    0.187732   0.066361  -0.132595   6.103106  -0.029355  -0.001510
    11  C    0.013634  -0.079500   0.116915  -0.029355   5.385706  -0.000175
    12  O   -0.015261   0.030365  -0.031101  -0.001510  -0.000175   8.366510
    13  H   -0.000444  -0.018548   0.018732  -0.003472   0.000102  -0.057537
    14  H   -0.000589   0.009951  -0.002500   0.000247   0.000007  -0.054900
    15  H   -0.003972   0.005577  -0.002583   0.000150  -0.000011   0.001717
    16  H   -0.003975  -0.016907   0.006228  -0.001707  -0.000284   0.003382
    17  H   -0.011817   0.010752  -0.008692  -0.000054   0.000814   0.000608
    18  H   -0.060540   0.013934  -0.005177  -0.000746  -0.000047   0.001654
    19  H    0.162988   0.013764   0.002737   0.004206   0.000170  -0.000168
    20  H    0.123042  -0.014907   0.028034   0.000295   0.001039   0.000012
    21  H    0.067018  -0.001477   0.000112   0.000193  -0.000050  -0.000001
    22  H    0.095380  -0.001050   0.004366   0.000667   0.000406  -0.000004
    23  H    0.471912   0.000292   0.000018   0.000009   0.000001  -0.000000
    24  H    0.238303  -0.001219  -0.001143  -0.000113  -0.000011   0.000008
    25  H    0.281962   0.000819  -0.000172  -0.000015   0.000002   0.000001
    26  H    0.009023   0.450971  -0.081702   0.011903  -0.006907  -0.001710
    27  H   -0.000706   0.403467  -0.013181   0.012583   0.006967   0.002568
    28  H   -0.001614  -0.010117   0.330592   0.005727  -0.027851  -0.000405
    29  H   -0.008683  -0.079700   0.464019  -0.059630   0.016461   0.000138
    30  H   -0.001671   0.007618  -0.054451   0.369907  -0.020976   0.000007
    31  H   -0.000174  -0.007118  -0.056015   0.382370   0.004791   0.000055
    32  H   -0.000022  -0.008910   0.028870  -0.094714   0.437370   0.000000
    33  H   -0.000108   0.000419   0.016624  -0.106755   0.443236   0.000001
    34  H   -0.000537  -0.004033   0.004529  -0.091620   0.444599   0.000000
    35  H   -0.001786  -0.003545   0.000664  -0.000950   0.000147   0.239831
              13         14         15         16         17         18
     1  C    0.400957   0.456763  -0.039165   0.000436  -0.002920  -0.021295
     2  C   -0.026671  -0.086904   0.412723   0.356285   0.011657  -0.017946
     3  N   -0.010993   0.008941  -0.057761  -0.034253  -0.047932  -0.063638
     4  C   -0.008607   0.002226   0.004151  -0.028544   0.400805   0.385234
     5  C    0.004954   0.001185   0.001809   0.014954  -0.037566  -0.006362
     6  C    0.000537   0.001099   0.006239   0.008588  -0.004165   0.090415
     7  C   -0.000444  -0.000589  -0.003972  -0.003975  -0.011817  -0.060540
     8  C   -0.018548   0.009951   0.005577  -0.016907   0.010752   0.013934
     9  C    0.018732  -0.002500  -0.002583   0.006228  -0.008692  -0.005177
    10  C   -0.003472   0.000247   0.000150  -0.001707  -0.000054  -0.000746
    11  C    0.000102   0.000007  -0.000011  -0.000284   0.000814  -0.000047
    12  O   -0.057537  -0.054900   0.001717   0.003382   0.000608   0.001654
    13  H    0.601203  -0.042705   0.004066  -0.002494   0.000012  -0.000007
    14  H   -0.042705   0.549847  -0.006146   0.000554   0.000002  -0.000011
    15  H    0.004066  -0.006146   0.534398  -0.031331   0.000412   0.004147
    16  H   -0.002494   0.000554  -0.031331   0.566193  -0.000313  -0.000174
    17  H    0.000012   0.000002   0.000412  -0.000313   0.559286  -0.029104
    18  H   -0.000007  -0.000011   0.004147  -0.000174  -0.029104   0.562785
    19  H    0.000000  -0.000000  -0.000200  -0.001862   0.004515  -0.005131
    20  H   -0.000000  -0.000000   0.000075   0.000249  -0.006619   0.004128
    21  H   -0.000000   0.000000  -0.000000   0.000002  -0.000086  -0.000130
    22  H   -0.000000  -0.000000  -0.000003  -0.000003   0.003359  -0.000410
    23  H    0.000000  -0.000000  -0.000000  -0.000000  -0.000005   0.000006
    24  H    0.000000   0.000000  -0.000020   0.000002   0.000066  -0.000962
    25  H   -0.000000   0.000000  -0.000006  -0.000000   0.000045   0.000094
    26  H    0.000164  -0.000026  -0.000120   0.007603  -0.000473  -0.000273
    27  H    0.002817  -0.000043   0.000160  -0.002832   0.000098  -0.000071
    28  H    0.000026  -0.000001   0.000002   0.000003   0.000270  -0.000018
    29  H   -0.000001   0.000000   0.000004  -0.000010  -0.003206   0.000154
    30  H    0.000003  -0.000000   0.000000  -0.000002   0.000014   0.000000
    31  H   -0.000003   0.000000   0.000000   0.000001  -0.000008   0.000000
    32  H    0.000000   0.000000   0.000000  -0.000000  -0.000000   0.000000
    33  H    0.000000   0.000000  -0.000000  -0.000000   0.000002   0.000000
    34  H    0.000000   0.000000  -0.000000   0.000000  -0.000002   0.000000
    35  H   -0.001115   0.005749  -0.001648   0.001138  -0.000119  -0.000534
              19         20         21         22         23         24
     1  C    0.017065   0.005890   0.000557   0.000928   0.000024  -0.001457
     2  C    0.002519   0.002837   0.002223   0.000481   0.000320   0.000274
     3  N   -0.000363  -0.007640   0.000146  -0.003934   0.000118   0.000151
     4  C    0.031539   0.015555   0.034721   0.047030   0.004075  -0.034738
     5  C    0.330046   0.373680  -0.050888  -0.078662   0.026787   0.011013
     6  C   -0.246764  -0.180627   0.281455   0.259835  -0.137868   0.146325
     7  C    0.162988   0.123042   0.067018   0.095380   0.471912   0.238303
     8  C    0.013764  -0.014907  -0.001477  -0.001050   0.000292  -0.001219
     9  C    0.002737   0.028034   0.000112   0.004366   0.000018  -0.001143
    10  C    0.004206   0.000295   0.000193   0.000667   0.000009  -0.000113
    11  C    0.000170   0.001039  -0.000050   0.000406   0.000001  -0.000011
    12  O   -0.000168   0.000012  -0.000001  -0.000004  -0.000000   0.000008
    13  H    0.000000  -0.000000  -0.000000  -0.000000   0.000000   0.000000
    14  H   -0.000000  -0.000000   0.000000  -0.000000  -0.000000   0.000000
    15  H   -0.000200   0.000075  -0.000000  -0.000003  -0.000000  -0.000020
    16  H   -0.001862   0.000249   0.000002  -0.000003  -0.000000   0.000002
    17  H    0.004515  -0.006619  -0.000086   0.003359  -0.000005   0.000066
    18  H   -0.005131   0.004128  -0.000130  -0.000410   0.000006  -0.000962
    19  H    0.572643  -0.032963  -0.002946   0.004964   0.000066  -0.000419
    20  H   -0.032963   0.563148  -0.005382  -0.003541  -0.000109  -0.000114
    21  H   -0.002946  -0.005382   0.575353  -0.032391  -0.003887   0.004295
    22  H    0.004964  -0.003541  -0.032391   0.567892  -0.002224  -0.005189
    23  H    0.000066  -0.000109  -0.003887  -0.002224   0.537919  -0.027391
    24  H   -0.000419  -0.000114   0.004295  -0.005189  -0.027391   0.544211
    25  H    0.002981  -0.000023  -0.004286   0.004280  -0.026884  -0.029277
    26  H    0.000404  -0.002218   0.000022   0.000006   0.000000  -0.000000
    27  H   -0.000020   0.000141  -0.000000  -0.000000  -0.000000  -0.000000
    28  H   -0.000007  -0.000027   0.000000  -0.000001   0.000000   0.000000
    29  H   -0.000022   0.000132  -0.000012  -0.000039  -0.000000   0.000000
    30  H   -0.000004  -0.000146  -0.000000  -0.000000  -0.000000   0.000000
    31  H   -0.000000  -0.000006  -0.000000  -0.000000   0.000000   0.000000
    32  H   -0.000000  -0.000000  -0.000000  -0.000000   0.000000   0.000000
    33  H   -0.000000  -0.000001  -0.000000  -0.000000  -0.000000   0.000000
    34  H   -0.000000  -0.000014  -0.000000  -0.000000   0.000000   0.000000
    35  H   -0.000003  -0.000003   0.000000  -0.000000  -0.000000   0.000001
              25         26         27         28         29         30
     1  C   -0.000548   0.022376  -0.030936  -0.002187  -0.004323  -0.002657
     2  C   -0.001746  -0.021740   0.009276   0.004043  -0.002243   0.000084
     3  N   -0.000557  -0.055603  -0.075863   0.020112  -0.009254   0.003326
     4  C   -0.018626  -0.003779   0.009037  -0.006016  -0.022224  -0.004285
     5  C    0.009723  -0.010494   0.000273   0.010264   0.016792   0.009649
     6  C    0.084250  -0.011031  -0.000131   0.001754   0.006471  -0.000103
     7  C    0.281962   0.009023  -0.000706  -0.001614  -0.008683  -0.001671
     8  C    0.000819   0.450971   0.403467  -0.010117  -0.079700   0.007618
     9  C   -0.000172  -0.081702  -0.013181   0.330592   0.464019  -0.054451
    10  C   -0.000015   0.011903   0.012583   0.005727  -0.059630   0.369907
    11  C    0.000002  -0.006907   0.006967  -0.027851   0.016461  -0.020976
    12  O    0.000001  -0.001710   0.002568  -0.000405   0.000138   0.000007
    13  H   -0.000000   0.000164   0.002817   0.000026  -0.000001   0.000003
    14  H    0.000000  -0.000026  -0.000043  -0.000001   0.000000  -0.000000
    15  H   -0.000006  -0.000120   0.000160   0.000002   0.000004   0.000000
    16  H   -0.000000   0.007603  -0.002832   0.000003  -0.000010  -0.000002
    17  H    0.000045  -0.000473   0.000098   0.000270  -0.003206   0.000014
    18  H    0.000094  -0.000273  -0.000071  -0.000018   0.000154   0.000000
    19  H    0.002981   0.000404  -0.000020  -0.000007  -0.000022  -0.000004
    20  H   -0.000023  -0.002218   0.000141  -0.000027   0.000132  -0.000146
    21  H   -0.004286   0.000022  -0.000000   0.000000  -0.000012  -0.000000
    22  H    0.004280   0.000006  -0.000000  -0.000001  -0.000039  -0.000000
    23  H   -0.026884   0.000000  -0.000000   0.000000  -0.000000  -0.000000
    24  H   -0.029277  -0.000000  -0.000000   0.000000   0.000000   0.000000
    25  H    0.540904  -0.000000   0.000000   0.000000   0.000000   0.000000
    26  H   -0.000000   0.588102  -0.043537   0.004464  -0.007757   0.001674
    27  H    0.000000  -0.043537   0.572970  -0.004866   0.004853  -0.000526
    28  H    0.000000   0.004464  -0.004866   0.553354  -0.034158   0.004628
    29  H    0.000000  -0.007757   0.004853  -0.034158   0.552397  -0.005505
    30  H    0.000000   0.001674  -0.000526   0.004628  -0.005505   0.564411
    31  H    0.000000  -0.000330   0.002857  -0.005409   0.004762  -0.032503
    32  H    0.000000   0.000001   0.000001  -0.000010   0.000024  -0.002688
    33  H    0.000000  -0.000007   0.000004   0.002655  -0.000435   0.004584
    34  H    0.000000   0.000003  -0.000002  -0.000277   0.003095  -0.004290
    35  H    0.000000   0.000185  -0.001161  -0.000027   0.000007  -0.000000
              31         32         33         34         35
     1  C   -0.003435  -0.000048  -0.000162  -0.000197   0.000936
     2  C    0.002573  -0.000078  -0.000043   0.000013  -0.067336
     3  N   -0.001971   0.000063  -0.000064   0.000277   0.070923
     4  C   -0.005886  -0.000159   0.000785  -0.004813  -0.000415
     5  C    0.003387   0.000252   0.000801   0.002941   0.008557
     6  C    0.000071  -0.000060  -0.000144  -0.000418   0.003870
     7  C   -0.000174  -0.000022  -0.000108  -0.000537  -0.001786
     8  C   -0.007118  -0.008910   0.000419  -0.004033  -0.003545
     9  C   -0.056015   0.028870   0.016624   0.004529   0.000664
    10  C    0.382370  -0.094714  -0.106755  -0.091620  -0.000950
    11  C    0.004791   0.437370   0.443236   0.444599   0.000147
    12  O    0.000055   0.000000   0.000001   0.000000   0.239831
    13  H   -0.000003   0.000000   0.000000   0.000000  -0.001115
    14  H    0.000000   0.000000   0.000000   0.000000   0.005749
    15  H    0.000000   0.000000  -0.000000  -0.000000  -0.001648
    16  H    0.000001  -0.000000  -0.000000   0.000000   0.001138
    17  H   -0.000008  -0.000000   0.000002  -0.000002  -0.000119
    18  H    0.000000   0.000000   0.000000   0.000000  -0.000534
    19  H   -0.000000  -0.000000  -0.000000  -0.000000  -0.000003
    20  H   -0.000006  -0.000000  -0.000001  -0.000014  -0.000003
    21  H   -0.000000  -0.000000  -0.000000  -0.000000   0.000000
    22  H   -0.000000  -0.000000  -0.000000  -0.000000  -0.000000
    23  H    0.000000   0.000000  -0.000000   0.000000  -0.000000
    24  H    0.000000   0.000000   0.000000   0.000000   0.000001
    25  H    0.000000   0.000000   0.000000   0.000000   0.000000
    26  H   -0.000330   0.000001  -0.000007   0.000003   0.000185
    27  H    0.002857   0.000001   0.000004  -0.000002  -0.001161
    28  H   -0.005409  -0.000010   0.002655  -0.000277  -0.000027
    29  H    0.004762   0.000024  -0.000435   0.003095   0.000007
    30  H   -0.032503  -0.002688   0.004584  -0.004290  -0.000000
    31  H    0.562213  -0.002828  -0.004326   0.004376   0.000006
    32  H   -0.002828   0.533810  -0.026702  -0.025863   0.000000
    33  H   -0.004326  -0.026702   0.537379  -0.028741   0.000000
    34  H    0.004376  -0.025863  -0.028741   0.534143   0.000000
    35  H    0.000006   0.000000   0.000000   0.000000   0.351151
          Atomic-Atomic Spin Densities.
               1          2          3          4          5          6
     1  C    3.412539  -2.567633   0.312575   0.723331  -1.361204  -1.303617
     2  C   -2.567633   2.040605  -0.264367  -0.045305   0.639472  -0.099639
     3  N    0.312575  -0.264367   0.102291  -0.042157  -0.047702   0.001952
     4  C    0.723331  -0.045305  -0.042157   4.561818  -2.897864 -11.657698
     5  C   -1.361204   0.639472  -0.047702  -2.897864   3.096490   4.044521
     6  C   -1.303617  -0.099639   0.001952 -11.657698   4.044521  51.497367
     7  C    0.918085   0.128469  -0.011516   9.263852  -2.889482 -42.760173
     8  C   -0.323141   0.218424  -0.016499  -0.125257   0.249905   0.132295
     9  C    0.370863  -0.205455   0.023387   0.424454  -0.491539  -0.696796
    10  C    0.145624  -0.069267  -0.049445   0.291680  -0.323863  -0.210143
    11  C    0.001883   0.000470  -0.000814   0.013612  -0.011943  -0.013193
    12  O   -0.229584   0.180628  -0.027773  -0.005329   0.047249   0.023426
    13  H   -0.030144   0.023940  -0.001523  -0.000091   0.003936   0.000818
    14  H   -0.022591   0.018890  -0.001476  -0.000058   0.002033   0.000721
    15  H   -0.009785   0.007405  -0.001411  -0.006567   0.007040   0.006985
    16  H   -0.006888   0.002508   0.001586   0.000546   0.004028   0.003570
    17  H   -0.000953   0.000520   0.001461  -0.013714   0.005406   0.008882
    18  H   -0.010968   0.005157  -0.004103  -0.037242   0.032021   0.082726
    19  H    0.015236   0.002373  -0.002521   0.097531  -0.063991  -0.238888
    20  H    0.009641   0.008084  -0.003323   0.094204  -0.062076  -0.167811
    21  H    0.000367   0.000866  -0.000681   0.035961  -0.015303  -0.133524
    22  H    0.000603   0.000828   0.000243   0.032448  -0.014659  -0.165823
    23  H    0.000043   0.000183  -0.000003   0.005742   0.004844  -0.072733
    24  H   -0.001600  -0.001405  -0.000535  -0.034552   0.006017   0.202841
    25  H   -0.000931  -0.001628   0.000230  -0.022053  -0.000866   0.146745
    26  H    0.015104  -0.006353  -0.001086   0.024314  -0.025516  -0.015066
    27  H   -0.011902   0.009306  -0.001152  -0.006426   0.007239   0.001634
    28  H   -0.003523   0.001909   0.001402  -0.001156   0.007073   0.001955
    29  H   -0.002985   0.001355   0.005003  -0.031400   0.022415   0.011159
    30  H   -0.003374   0.000950   0.003669  -0.007358   0.010974   0.000180
    31  H   -0.002689   0.001654   0.000935  -0.001842   0.002974   0.000138
    32  H   -0.000059   0.000009   0.000071  -0.000155   0.000288  -0.000066
    33  H   -0.000258   0.000110   0.000257  -0.000612   0.001102  -0.000070
    34  H   -0.000175  -0.000006   0.000401  -0.002681   0.002341  -0.000451
    35  H   -0.019265   0.014317  -0.003534   0.000258   0.005774   0.002380
               7          8          9         10         11         12
     1  C    0.918085  -0.323141   0.370863   0.145624   0.001883  -0.229584
     2  C    0.128469   0.218424  -0.205455  -0.069267   0.000470   0.180628
     3  N   -0.011516  -0.016499   0.023387  -0.049445  -0.000814  -0.027773
     4  C    9.263852  -0.125257   0.424454   0.291680   0.013612  -0.005329
     5  C   -2.889482   0.249905  -0.491539  -0.323863  -0.011943   0.047249
     6  C  -42.760173   0.132295  -0.696796  -0.210143  -0.013193   0.023426
     7  C   35.908920  -0.094819   0.520537   0.187351   0.013764  -0.015273
     8  C   -0.094819   0.083102  -0.055173  -0.118547   0.007478   0.019361
     9  C    0.520537  -0.055173   0.167407   0.042625  -0.002122  -0.018238
    10  C    0.187351  -0.118547   0.042625   0.365707  -0.003583  -0.004269
    11  C    0.013764   0.007478  -0.002122  -0.003583   0.013152  -0.000047
    12  O   -0.015273   0.019361  -0.018238  -0.004269  -0.000047   0.023642
    13  H   -0.000456   0.002372  -0.001742  -0.000587   0.000003   0.002322
    14  H   -0.000449   0.000964  -0.000559  -0.000044  -0.000001   0.001809
    15  H   -0.004900   0.001357  -0.000837  -0.000052  -0.000001   0.000433
    16  H   -0.002396  -0.004690   0.001405  -0.000417  -0.000007   0.000252
    17  H   -0.005929   0.006799  -0.002500  -0.000130  -0.000043   0.000015
    18  H   -0.063462  -0.001362  -0.004080  -0.000633  -0.000043   0.000374
    19  H    0.176801   0.000304   0.007906   0.001627   0.000081  -0.000099
    20  H    0.119247  -0.010347   0.012956   0.009523   0.000079  -0.000037
    21  H    0.116209   0.000381   0.000485   0.000216   0.000033  -0.000000
    22  H    0.147339   0.001605   0.002588   0.001089   0.000063  -0.000002
    23  H    0.062354   0.000079   0.000064   0.000007   0.000001  -0.000000
    24  H   -0.172926   0.000012  -0.000912  -0.000095  -0.000004   0.000008
    25  H   -0.122997   0.000131  -0.000307  -0.000025  -0.000001   0.000002
    26  H    0.009323  -0.031991   0.026117   0.006243   0.000065  -0.000174
    27  H   -0.000822   0.017412  -0.016117   0.000005   0.000013   0.000385
    28  H   -0.001772  -0.007565   0.010122  -0.010873  -0.000295   0.000126
    29  H   -0.008036   0.020908  -0.024478   0.000500  -0.000838   0.000027
    30  H   -0.001662   0.003242  -0.001263  -0.023380   0.000118   0.000013
    31  H   -0.000174   0.007667  -0.006688  -0.006408  -0.000064   0.000028
    32  H   -0.000022   0.000024   0.003936  -0.009081   0.001981   0.000000
    33  H   -0.000111   0.000797   0.003206  -0.008346  -0.000654   0.000001
    34  H   -0.000516   0.001204   0.002010  -0.013434   0.003595   0.000000
    35  H   -0.001500   0.000691  -0.001488  -0.000602  -0.000008   0.002474
              13         14         15         16         17         18
     1  C   -0.030144  -0.022591  -0.009785  -0.006888  -0.000953  -0.010968
     2  C    0.023940   0.018890   0.007405   0.002508   0.000520   0.005157
     3  N   -0.001523  -0.001476  -0.001411   0.001586   0.001461  -0.004103
     4  C   -0.000091  -0.000058  -0.006567   0.000546  -0.013714  -0.037242
     5  C    0.003936   0.002033   0.007040   0.004028   0.005406   0.032021
     6  C    0.000818   0.000721   0.006985   0.003570   0.008882   0.082726
     7  C   -0.000456  -0.000449  -0.004900  -0.002396  -0.005929  -0.063462
[...]
 00007459,0.00011159,-0.00051088,-0.00063006,-0.00017718,0.00002425,-0.
 00023177,0.00007796,0.00084394,0.00090407,0.00025508,0.00242133,-0.006
 18624,-0.01519432,0.05942995,-0.08714466,-0.24221797,0.00465507,-0.005
 62934,-0.01491519,-0.00000870,0.00000700,0.00000286,0.00000058,0.00000
 254,-0.00000097,-0.00000271,-0.00000730,-0.00000180,-0.00001543,-0.000
 02030,0.00000517,-0.00001515,-0.00001919,-0.00000716,0.00002379,0.0000
 2754,0.00000097,-0.00000641,0.00003832,0.00003965,0.00013206,0.0000625
 8,-0.00004344,-0.00022037,-0.00004577,-0.00015955,0.00017768,0.0003596
 7,-0.00000596,0.00024544,0.00032157,0.00005682,-0.00000880,0.00011860,
 -0.00001966,-0.00003407,0.00000707,0.00000206,-0.00004827,-0.00001288,
 -0.00001805,-0.00015311,-0.00038519,0.00047671,-0.00006713,-0.00002346
 ,-0.00000787,-0.00290640,-0.00115606,-0.00124059,0.00080127,-0.0005602
 5,0.00020663,-0.06475729,0.09557988,0.26642263,-0.00003870,0.00000057,
 -0.00000571,-0.00001209,0.00005237,-0.00006407,0.00014492,-0.00025458,
 -0.00003244,-0.00005160,0.00011729,-0.00026330,0.00009915,0.00003043,-
 0.00012555,-0.00004528,-0.00004525,0.00012332,0.00006839,-0.00002249,-
 0.00009774,0.00069942,0.00147029,-0.00043996,-0.01749050,0.02132056,-0
 .00417731,-0.13881645,0.12054738,-0.02801559,0.01023631,-0.01543523,0.
 00370464,0.00001805,-0.00003918,0.00000337,0.00000838,-0.00000059,0.00
 000354,0.00000551,-0.00001157,-0.00000146,-0.00001314,-0.00002519,0.00
 001334,0.00000481,-0.00000025,0.00002158,-0.00008654,-0.00018373,0.000
 23183,-0.00005209,-0.00009876,0.00006723,-0.00002132,0.00000593,0.0000
 4413,0.00001955,-0.00000299,0.00006894,0.00001822,0.00003720,0.0000533
 4,-0.00004433,-0.00000106,-0.00000854,-0.00001315,0.00000890,-0.000002
 76,-0.00000950,-0.00000455,-0.00000148,0.00001364,0.00000394,0.0000027
 2,-0.00002851,-0.00005983,0.00006215,-0.00007828,-0.00062327,0.0002677
 2,0.00128772,-0.00031712,0.00018364,-0.00410879,-0.00252143,-0.0031013
 0,-0.00527419,0.00610564,-0.00163055,0.15313196,0.00001511,-0.00000819
 ,0.00000410,0.00005074,-0.00006418,0.00006119,0.00019888,0.00032068,-0
 .00016901,-0.00020185,0.00001092,-0.00004843,0.00003120,-0.00000502,-0
 .00006012,-0.00000176,0.00001130,0.00006140,0.00005052,-0.00002407,-0.
 00004342,-0.00041310,0.00102331,-0.00020591,-0.00741368,0.00796458,-0.
 00197870,0.11997653,-0.20453729,0.03638798,0.01301197,-0.01768499,0.00
 345900,-0.00000556,0.00002475,-0.00000308,-0.00000220,0.00000252,-0.00
 000059,-0.00000050,0.00000887,0.00000193,0.00002533,0.00002979,-0.0000
 1340,-0.00000235,0.00000141,-0.00001981,0.00000383,-0.00006202,0.00004
 653,-0.00002726,-0.00003300,0.00000986,-0.00000674,-0.00000096,0.00000
 915,0.00001089,0.00004524,0.00005187,0.00002380,0.00001269,0.00002931,
 -0.00002345,0.00000320,-0.00000352,-0.00000023,-0.00000095,0.00000041,
 -0.00000570,-0.00000476,-0.00000221,0.00000648,0.00000306,0.00000013,0
 .00004341,0.00001990,0.00006875,0.00033401,-0.00000354,-0.00016923,0.0
 0051734,0.00054636,0.00050363,-0.00182486,0.00005599,-0.00053506,0.006
 89841,-0.00959599,0.00236034,-0.12844019,0.22299991,-0.00001034,0.0000
 0844,-0.00000209,0.00000619,0.00001138,0.00000127,0.00020699,-0.000077
 16,-0.00011167,-0.00011145,0.00013203,-0.00019365,0.00006805,0.0000902
 6,-0.00033747,-0.00020473,-0.00028692,0.00027187,0.00022724,-0.0001817
 1,-0.00024681,0.00064400,0.00057375,0.00021823,-0.01146953,0.01356224,
 -0.00379288,-0.02709047,0.03561402,-0.05764320,-0.01044497,0.01463243,
 -0.00370179,0.00001609,-0.00001800,-0.00001732,-0.00000390,-0.00000209
 ,-0.00000024,0.00000221,-0.00000304,-0.00000245,-0.00000909,-0.0000051
 0,0.00000361,0.00000792,0.00000586,-0.00000448,-0.00008481,-0.00017739
 ,0.00012997,0.00000159,-0.00009560,-0.00001737,0.00000370,0.00000335,0
 .00006298,-0.00001806,0.00013715,0.00027435,0.00015538,0.00020389,0.00
 019159,-0.00007080,0.00009141,-0.00000584,-0.00002628,0.00005972,-0.00
 000971,-0.00004802,-0.00001723,-0.00000794,0.00003078,0.00001371,-0.00
 000304,-0.00006987,-0.00005366,0.00002161,0.00016205,-0.00025796,0.000
 22739,0.00068173,0.00044114,0.00043188,-0.00262528,-0.00175312,-0.0007
 9261,0.01670507,-0.02198706,0.00602855,0.03199383,-0.04215803,0.059226
 83,-0.00001408,0.00001488,0.00000212,-0.00013156,0.00008920,-0.0001439
 5,-0.00031800,-0.00051627,0.00029838,0.00002014,-0.00002555,-0.0000139
 3,-0.00001999,0.00006464,-0.00020177,-0.00012207,-0.00019511,0.0001612
 7,0.00012061,-0.00009358,-0.00014345,-0.00051525,0.00019928,-0.0013229
 1,-0.00056405,-0.00276089,0.00339520,-0.01203485,-0.00232532,-0.008674
 82,-0.22479614,-0.06486808,-0.10843510,0.00000891,-0.00005273,-0.00000
 910,0.00000146,0.00000049,-0.00000212,0.00000136,-0.00001608,-0.000004
 10,-0.00005554,-0.00005760,0.00002873,0.00000334,-0.00000082,0.0000248
 8,-0.00002970,-0.00009119,0.00004465,-0.00002714,-0.00002388,-0.000025
 95,0.00000113,-0.00000027,0.00003883,0.00001270,0.00008733,0.00015694,
 0.00008817,0.00012514,0.00011203,-0.00004382,0.00005189,-0.00000332,-0
 .00001949,0.00003882,-0.00000685,-0.00002792,-0.00000933,-0.00000344,0
 .00001929,0.00000812,-0.00000123,-0.00003544,0.00003404,0.00007644,0.0
 0003270,-0.00006496,-0.00000127,0.00009150,-0.00004643,-0.00014756,0.0
 0042502,-0.00011841,0.00022272,0.00023418,0.00051582,0.00000576,0.0008
 0319,-0.00008854,0.00006008,0.24155103,-0.00002007,0.00000676,0.000012
 62,-0.00014515,0.00009270,-0.00018244,-0.00039244,-0.00054240,0.000416
 43,0.00009149,-0.00009874,0.00005248,-0.00004439,0.00001484,-0.0000442
 9,-0.00012733,-0.00021052,-0.00003656,0.00000859,-0.00004597,0.0000169
 7,-0.00100665,0.00042207,-0.00121966,-0.00171480,-0.00276076,0.0042186
 9,-0.01802629,-0.00652086,-0.01326052,-0.06391818,-0.07129376,-0.03966
 633,0.00000675,-0.00005169,-0.00000614,0.00000370,0.00000237,-0.000001
 70,0.00000090,-0.00001885,-0.00000452,-0.00005746,-0.00007315,0.000029
 17,0.00000180,-0.00000353,0.00003147,0.00001003,0.00001107,0.00001541,
 -0.00003601,0.00000890,0.00000142,0.00002674,0.00001133,0.00000280,-0.
 00002538,-0.00000518,-0.00001711,0.00004596,0.00010799,0.00001243,0.00
 005555,0.00008175,0.00001211,-0.00001001,0.00003278,-0.00000680,-0.000
 01021,-0.00000019,0.00000058,-0.00001184,-0.00000341,-0.00000539,-0.00
 004544,-0.00003800,0.00007404,0.00007723,-0.00003107,-0.00004819,0.000
 32236,0.00004526,0.00013677,-0.00007235,0.00007204,-0.00011015,0.00059
 825,0.00080723,-0.00000475,0.00062803,0.00046641,-0.00066298,0.0734921
 6,0.07420294,0.00000968,-0.00000644,-0.00001142,0.00009565,-0.00005672
 ,0.00010090,0.00023705,0.00030432,-0.00022799,-0.00008812,0.00011836,-
 0.00003361,-0.00011817,-0.00003701,-0.00013454,-0.00017765,-0.00031155
 ,0.00004696,0.00008049,-0.00012081,-0.00007557,0.00047362,0.00023330,0
 .00080593,0.00128789,0.00257192,-0.00179399,0.01639505,0.00553460,0.00
 992281,-0.10976974,-0.04080754,-0.11501450,-0.00000126,0.00002361,0.00
 000345,-0.00000087,-0.00000031,0.00000166,0.00000014,0.00000933,0.0000
 0223,0.00003491,0.00004418,-0.00001735,-0.00000093,0.00000300,-0.00001
 985,-0.00002980,-0.00005274,0.00000084,0.00003532,-0.00001524,-0.00001
 716,0.00002653,0.00000601,0.00001950,0.00002998,0.00011132,0.00009946,
 0.00011310,0.00015921,0.00009277,0.00002209,0.00010162,0.00001152,-0.0
 0001471,0.00005578,-0.00000912,-0.00002913,-0.00000607,-0.00000387,0.0
 0000297,0.00000469,-0.00000838,-0.00000356,-0.00007064,-0.00002104,-0.
 00000918,0.00002931,-0.00000992,0.00006034,0.00014152,0.00025398,-0.00
 008952,-0.00013704,-0.00016328,-0.00027904,-0.00076530,0.00073782,-0.0
 0049880,-0.00066138,0.00052360,0.11799223,0.04197903,0.12046024,0.0000
 0142,-0.00000183,0.00001046,0.00000855,0.00000997,-0.00001907,-0.00001
 691,-0.00006880,-0.00005572,0.00002851,-0.00005200,0.00001722,0.000052
 85,0.00003007,0.00011724,0.00003113,0.00005841,-0.00010952,-0.00005606
 ,0.00003969,0.00008324,0.00004641,-0.00002171,0.00003972,0.00055250,0.
 00077815,0.00076165,-0.00529586,0.00649568,0.01386356,-0.06975193,0.02
 853254,0.06641636,0.00000270,-0.00000394,-0.00000384,-0.00000109,0.000
 00155,-0.00000078,-0.00000082,-0.00000167,-0.00000114,-0.00000178,-0.0
 0000135,0.00000143,0.00000283,0.00000141,0.00000511,0.00000647,0.00003
 865,-0.00001104,-0.00001378,0.00001430,0.00001852,0.00000781,0.0000052
 8,-0.00002373,-0.00003453,-0.00007791,-0.00008765,-0.00003819,-0.00003
 563,-0.00005398,0.00002858,-0.00000739,0.00000350,0.00000720,-0.000012
 06,0.00000106,0.00001285,0.00000359,0.00000197,-0.00000917,-0.00000422
 ,0.00000134,-0.00001413,-0.00005920,-0.00014069,-0.00000331,-0.0000037
 0,0.00001163,-0.00012012,-0.00021041,-0.00021095,-0.00001859,0.0001027
 0,-0.00009086,-0.00098502,-0.00272479,0.00197552,0.00055284,-0.0000062
 6,-0.00069535,0.00908661,-0.00999594,-0.02331483,0.07113874,-0.0000020
 0,0.00000115,-0.00000272,0.00002292,0.00000478,0.00000688,0.00004906,-
 0.00002589,-0.00012175,0.00000338,0.00002765,-0.00001690,0.00000478,0.
 00001174,0.00000914,0.00001785,0.00000647,-0.00000072,0.00002762,-0.00
 001075,-0.00000071,0.00010985,0.00008009,0.00026288,0.00084702,0.00116
 323,0.00054817,-0.00768199,0.00881302,0.02198672,0.02898572,-0.0839860
 9,-0.08836738,0.00000514,-0.00000054,-0.00000008,0.00000011,0.00000102
 ,0.00000045,0.00000049,0.00000069,-0.00000042,0.00000369,0.00000814,0.
 00000115,0.00000261,0.00000254,0.00000334,-0.00000795,-0.00001565,0.00
 000887,-0.00000090,-0.00000051,0.00000299,-0.00000809,-0.00000307,-0.0
 0000111,-0.00001675,0.00000708,-0.00000187,0.00002135,0.00001790,0.000
 00769,-0.00000155,0.00000907,0.00000702,-0.00000018,0.00000374,0.00000
 037,-0.00000408,-0.00000180,-0.00000142,-0.00000108,-0.00000023,0.0000
 0053,-0.00005110,-0.00010096,-0.00013067,0.00001500,-0.00000678,0.0000
 1771,0.00018916,-0.00012256,-0.00034485,-0.00007009,0.00001241,-0.0000
 7395,-0.00282941,-0.00268638,0.00257122,0.00065558,0.00114430,-0.00055
 011,0.00313301,-0.00400642,-0.00681291,-0.02879149,0.08832750,0.000004
 07,-0.00000351,-0.00000345,0.00001407,-0.00002927,0.00002245,0.0000890
 8,0.00013392,-0.00000514,0.00002103,-0.00000370,-0.00000481,0.00004949
 ,-0.00001653,0.00011369,0.00012301,0.00021090,-0.00005630,-0.00006584,
 0.00007593,0.00006479,-0.00009971,0.00002155,0.00037791,-0.00082931,-0
 .00057536,0.00073959,0.00464828,-0.00687785,-0.01532637,0.06667732,-0.
 08718669,-0.25404907,-0.00000798,0.00001966,0.00000959,0.00000057,-0.0
 0000008,0.00000038,-0.00000056,0.00000374,0.00000202,0.00001222,0.0000
 1021,-0.00000779,0.00000012,0.00000343,-0.00000616,0.00001237,0.000043
 19,-0.00001981,0.00000461,0.00001266,0.00001192,-0.00001765,-0.0000053
 7,-0.00001645,-0.00001184,-0.00005919,-0.00008251,-0.00007337,-0.00011
 131,-0.00006495,-0.00000240,-0.00006578,-0.00000445,0.00001413,-0.0000
 3795,0.00000648,0.00002108,0.00000620,0.00000302,-0.00000542,-0.000003
 62,0.00000450,-0.00008998,-0.00008783,0.00007277,-0.00001841,0.0000218
 6,-0.00001782,0.00048494,0.00018027,0.00037331,0.00000476,0.00019885,-
 0.00001632,0.00198153,0.00327315,-0.00116833,-0.00059573,0.00001657,0.
 00043954,0.00511640,-0.00518285,-0.01267089,-0.07556365,0.09361529,0.2
 7534687,-0.00000492,-0.00001081,0.00002051,0.00001583,0.00000768,-0.00
 002625,-0.00007235,0.00016192,-0.00002131,0.00020935,-0.00015564,0.000
 06820,0.00019351,-0.00010577,0.00045772,0.00063750,0.00100893,-0.00012
 915,-0.00027577,0.00042502,0.00024926,0.00046179,-0.00029671,-0.000069
 82,0.00162037,-0.00086698,0.00024789,0.00989500,-0.01446554,0.00185850
 ,-0.13678735,0.12234076,-0.02561611,-0.00000616,0.00000756,0.00000782,
 -0.00000010,0.00000786,-0.00000065,-0.00000365,-0.00000238,-0.00000117
 ,0.00000152,0.00000169,-0.00000168,0.00000261,-0.00000160,0.00000704,0
 .00008314,0.00019396,-0.00002800,-0.00004652,0.00004848,0.00003943,-0.
 00011265,-0.00004364,-0.00006678,0.00008042,-0.00015542,-0.00037974,-0
 .00034477,-0.00054971,-0.00034417,-0.00004051,-0.00032677,-0.00001361,
 0.00005241,-0.00018797,0.00002907,0.00009765,0.00001778,0.00000549,-0.
 00002170,-0.00001684,0.00002586,0.00000343,0.00007955,0.00001984,-0.00
 019537,-0.00000865,0.00002846,0.00001969,0.00001878,-0.00012519,-0.000
 39617,0.00054560,0.00017740,0.00024341,0.00097141,-0.00026149,-0.00090
 929,-0.00274232,0.00202378,-0.01373628,0.02029967,-0.00247648,-0.00520
 282,0.00537730,-0.00190721,0.14453649,0.00000277,-0.00000617,0.0000102
 1,0.00000740,0.00001673,-0.00002225,-0.00005578,-0.00001241,0.00007005
 ,-0.00003029,-0.00002556,0.00002786,-0.00009400,0.00001094,-0.00000380
 ,-0.00031062,-0.00043957,-0.00008391,-0.00003248,-0.00010457,0.0000306
 6,-0.00009465,0.00022055,0.00004200,0.00108284,0.00057830,0.00005519,0
 .01295830,-0.01856033,0.00389415,0.12195655,-0.21348293,0.03326027,-0.
 00000447,-0.00000167,-0.00000319,-0.00000173,0.00000180,-0.00000152,-0
 .00000178,-0.00000287,-0.00000139,-0.00000301,-0.00000750,0.00000060,-
 0.00000301,-0.00000387,0.00000909,0.00000736,0.00001697,-0.00000824,-0
 .00000419,0.00002281,0.00001543,0.00006357,0.00002651,-0.00001131,-0.0
 0005791,-0.00003225,-0.00005208,0.00008996,0.00019748,0.00003128,0.000
 12077,0.00016035,0.00001988,-0.00001030,0.00006468,-0.00001187,-0.0000
 1639,0.00000301,0.00000311,-0.00001956,-0.00000437,-0.00001380,0.00000
 117,-0.00007272,-0.00001248,-0.00000551,0.00010485,-0.00006854,-0.0000
 7958,0.00000078,-0.00005113,-0.00062199,-0.00011200,-0.00033614,0.0002
 5049,0.00088807,-0.00046605,-0.00293720,-0.00264404,0.00269188,-0.0065
 5357,0.00926367,-0.00154375,0.00596636,-0.00867533,0.00241873,-0.13157
 382,0.23260639,-0.00000327,-0.00000593,0.00000774,0.00000557,-0.000026
 96,-0.00000515,0.00005625,-0.00004877,0.00006944,0.00006300,-0.0000024
 9,0.00003238,-0.00003524,0.00001589,0.00015010,-0.00019599,-0.00028628
 ,-0.00024448,-0.00006371,-0.00007083,0.00015104,-0.00004541,-0.0001908
 6,0.00000821,-0.00076741,-0.00060011,0.00044322,-0.01061713,0.01490123
 ,-0.00358115,-0.02501366,0.03290340,-0.05461644,-0.00000217,0.00001280
 ,0.00000519,0.00000160,0.00000017,0.00000172,-0.00000005,0.00000055,0.
 00000111,0.00000753,0.00000261,-0.00000332,-0.00000258,-0.00000115,0.0
 0000031,0.00000909,0.00006578,-0.00003322,0.00000721,0.00003457,0.0000
 3109,0.00006370,0.00002767,-0.00003976,-0.00010782,-0.00012593,-0.0001
 5368,0.00003713,0.00013187,-0.00004268,0.00014277,0.00013478,0.0000241
 0,-0.00000017,0.00004950,-0.00000958,-0.00000272,0.00000836,0.00000352
 ,-0.00003338,-0.00000916,-0.00001213,0.00001412,-0.00008060,-0.0001015
 5,-0.00002718,-0.00007511,0.00003971,0.00006476,0.00001816,-0.00001416
 ,0.00026044,-0.00015897,0.00013183,-0.00064366,-0.00052282,0.00033663,
 0.00220238,0.00301137,-0.00117167,-0.00862774,0.01341496,-0.00283198,0
 .01704726,-0.02262136,0.00594539,0.02620362,-0.03989566,0.05548368,-0.
 00036646,-0.00679954,0.00532696,0.00021756,-0.00053186,0.00270897,-0.0
 0394794,-0.00100249,-0.00183254,-0.00084130,0.00089433,0.00044582,0.00
 005486,-0.00006690,-0.00007121,0.00000313,0.00002210,-0.00000321,0.000
 00608,-0.00001061,-0.00001934,0.00120152,-0.00107987,-0.00102811,-0.00
 007107,0.00000768,-0.00027510,-0.00002314,-0.00004609,0.00007111,-0.00
 002552,-0.00000813,-0.00002498,-0.01689875,-0.05309676,0.02429123,0.00
 001443,0.00029734,-0.00140771,-0.00057849,0.00019352,0.00364878,-0.000
 38285,0.00018365,0.00006546,-0.00005896,-0.00067457,-0.00045890,0.0000
 4949,-0.00019452,0.00004975,-0.00001930,0.00000039,0.00001185,-0.00001
 020,-0.00001985,0.00000643,0.00002606,0.00004539,0.00002115,0.00001395
 ,-0.00002972,0.00001814,-0.00001964,-0.00002134,0.00000958,0.00000943,
 -0.00000948,0.00000204,-0.00000532,-0.00000232,-0.00000796,0.00000432,
 0.00000483,-0.00000024,-0.00044207,-0.00025128,-0.00038320,-0.00021207
 ,-0.00001282,-0.00021052,-0.00001711,0.00002521,0.00009718,0.00001046,
 0.00002844,0.00002402,-0.00000341,0.00000885,0.00001965,-0.00001831,0.
 00000811,-0.00001373,-0.00001001,-0.00000923,0.00000479,-0.00000388,-0
 .00000499,0.00000997,0.00000225,0.00000429,0.00000284,0.02234226,-0.00
 155184,0.00567743,0.00526822,0.00353773,-0.00037375,-0.00824172,-0.000
 47532,0.00693867,0.00268345,0.00219437,-0.00178933,0.00383230,-0.00092
 903,0.00114462,-0.00085581,-0.00007505,0.00010104,0.00061238,0.0000466
 0,0.00004630,0.00001244,-0.00415175,-0.00112165,-0.00160338,0.00026277
 ,-0.00001014,0.00061291,-0.00002869,0.00022780,-0.00023839,0.00010183,
 0.00002157,0.00011816,-0.06253688,-0.42009275,0.15364148,-0.00063576,-
 0.00062821,-0.00213285,0.00210986,0.00007497,-0.00214732,-0.00030595,-
 0.00012550,0.00030196,-0.00040230,-0.00122668,0.00159588,-0.00009342,0
 .00037105,-0.00022860,-0.00039319,0.00008669,-0.00015343,-0.00002644,-
 0.00003631,0.00012116,-0.00006635,-0.00015890,-0.00003994,-0.00016532,
 0.00027486,-0.00009182,0.00006629,0.00005150,-0.00005304,-0.00006807,0
 .00002186,-0.00002040,0.00000283,-0.00000742,0.00000822,-0.00002534,-0
 .00001684,0.00001236,0.00086210,0.00075400,0.00140880,0.00045750,-0.00
 003529,0.00018247,-0.00000884,0.00005296,0.00000260,0.00001008,-0.0000
 4335,-0.00006945,0.00004665,0.00000024,0.00000556,0.00004035,-0.000026
 16,0.00001450,0.00005377,0.00005440,-0.00002569,0.00000197,0.00000044,
 -0.00001924,-0.00000342,0.00000426,-0.00001068,0.06214824,0.40978764,0
 .01005624,0.04009444,-0.03017437,0.00359973,0.00161546,-0.00322920,-0.
 00218283,0.00411605,0.00096688,0.00111987,-0.00064245,0.00226322,-0.00
 062480,0.00073383,-0.00051054,-0.00002552,0.00006598,0.00033729,0.0000
 2467,0.00003125,0.00000681,-0.00189776,-0.00110441,-0.00168145,0.00006
 388,0.00012831,0.00049065,0.00000428,0.00012392,-0.00018567,0.00006376
 ,0.00001782,0.00008140,0.02143220,0.10927748,-0.08783174,0.00012016,0.
 00032267,-0.00079118,-0.00031012,-0.00140681,-0.00585275,-0.00003409,-
 0.00027695,-0.00003345,-0.00032752,0.00090647,0.00059546,-0.00002842,0
 .00029648,-0.00014161,-0.00021900,-0.00000368,-0.00004257,0.00000549,-
 0.00002188,0.00002028,-0.00002014,-0.00008562,-0.00001695,-0.00009393,
 0.00016847,-0.00003672,0.00002707,0.00003891,-0.00002894,-0.00004003,0
 .00001226,-0.00001220,-0.00000128,-0.00000896,0.00000481,-0.00000955,-
 0.00000981,0.00000266,0.00032087,0.00033768,0.00054382,-0.00004670,-0.
 00022411,-0.00015730,0.00002246,-0.00003147,-0.00005665,0.00003256,0.0
 0000492,-0.00006068,0.00001598,0.00000029,-0.00000179,0.00001456,-0.00
 001165,0.00000896,0.00003196,0.00003300,-0.00001918,0.00000602,-0.0000
 0150,-0.00001363,-0.00000108,0.00000673,-0.00000545,-0.03109899,-0.154
 50311,0.12556180\\0.00000170,-0.00000073,-0.00000414,-0.00001139,-0.00
 002358,-0.00000681,0.00000581,-0.00000013,-0.00000008,-0.00001709,0.00
 003541,-0.00000160,-0.00004624,-0.00004621,0.00002965,-0.00000737,-0.0
 0000988,0.00001993,-0.00000336,0.00001490,0.00000908,0.00002090,0.0000
 0500,0.00000816,0.00002859,-0.00001713,0.00000199,-0.00000703,-0.00000
 704,-0.00000468,-0.00000144,-0.00000265,0.00000688,-0.00000579,0.00000
 024,0.00000378,-0.00000104,0.00000375,-0.00000059,-0.00000024,-0.00000
 427,-0.00000479,-0.00000101,-0.00000540,0.00000543,0.00000185,-0.00000
 941,-0.00000434,-0.00000616,0.00000692,-0.00001227,0.00000919,-0.00001
 209,-0.00002064,0.00000572,0.00001824,-0.00001785,0.00002019,0.0000420
 9,-0.00000190,0.00000067,-0.00000969,-0.00000975,0.00001310,0.00001000
 ,-0.00000971,0.00000027,0.00000108,0.00000370,0.00000696,0.00000332,-0
 .00000559,0.00000044,0.00000142,0.00000062,0.00000651,-0.00000293,-0.0
 0000889,-0.00000044,-0.00000823,0.00000353,-0.00000353,-0.00000092,-0.
 00000072,-0.00000835,0.00000700,0.00001142,-0.00000283,0.00000185,0.00
 000558,-0.00000361,0.00000093,0.00000172,0.00000224,0.00000005,0.00000
 093,0.00000294,0.00000282,-0.00000017,0.00000130,-0.00000165,0.0000019
 0,-0.00000145,0.00000691,0.00000021\\\@
 The archive entry for this job was punched.


 FROM THE ASHES OF OUR DESPAIR GROW THE FLOWERS OF TOMORROW.
 Job cpu time:       0 days  3 hours 52 minutes  8.4 seconds.
 Elapsed time:       0 days  0 hours 16 minutes 13.9 seconds.
 File lengths (MBytes):  RWF=    872 Int=      0 D2E=      0 Chk=     23 Scr=      1
 Normal termination of Gaussian 16 at Wed Nov  9 23:40:05 2022.
