 Entering Gaussian System, Link 0=g16
 Input=DBAE-conformers-16.gau
 Output=DBAE-conformers-16.log
 Initial command:
 /apps/gaussian/g16c01/g16/l1.exe "/jobfs/62954165.gadi-pbs/Gau-248239.inp" -scrdir="/jobfs/62954165.gadi-pbs/"
 Default is to use a total of  20 processors:
                               20 via shared-memory
                                1 via Linda
 Entering Link 1 = /apps/gaussian/g16c01/g16/l1.exe PID=    248240.
  
 Copyright (c) 1988-2019, Gaussian, Inc.  All Rights Reserved.
  
 This is part of the Gaussian(R) 16 program.  It is based on
 the Gaussian(R) 09 system (copyright 2009, Gaussian, Inc.),
 the Gaussian(R) 03 system (copyright 2003, Gaussian, Inc.),
 the Gaussian(R) 98 system (copyright 1998, Gaussian, Inc.),
 the Gaussian(R) 94 system (copyright 1995, Gaussian, Inc.),
 the Gaussian 92(TM) system (copyright 1992, Gaussian, Inc.),
 the Gaussian 90(TM) system (copyright 1990, Gaussian, Inc.),
 the Gaussian 88(TM) system (copyright 1988, Gaussian, Inc.),
 the Gaussian 86(TM) system (copyright 1986, Carnegie Mellon
 University), and the Gaussian 82(TM) system (copyright 1983,
 Carnegie Mellon University). Gaussian is a federally registered
 trademark of Gaussian, Inc.
  
 This software contains proprietary and confidential information,
 including trade secrets, belonging to Gaussian, Inc.
  
 This software is provided under written license and may be
 used, copied, transmitted, or stored only in accord with that
 written license.
  
 The following legend is applicable only to US Government
 contracts under FAR:
  
                    RESTRICTED RIGHTS LEGEND
  
 Use, reproduction and disclosure by the US Government is
 subject to restrictions as set forth in subparagraphs (a)
 and (c) of the Commercial Computer Software - Restricted
 Rights clause in FAR 52.227-19.
  
 Gaussian, Inc.
 340 Quinnipiac St., Bldg. 40, Wallingford CT 06492
  
  
 ---------------------------------------------------------------
 Warning -- This program may not be used in any manner that
 competes with the business of Gaussian, Inc. or will provide
 assistance to any competitor of Gaussian, Inc.  The licensee
 of this program is prohibited from giving any competitor of
 Gaussian, Inc. access to this program.  By using this program,
 the user acknowledges that Gaussian, Inc. is engaged in the
 business of creating and licensing software in the field of
 computational chemistry and represents and warrants to the
 licensee that it is not a competitor of Gaussian, Inc. and that
 it will not use this program in any manner prohibited above.
 ---------------------------------------------------------------
  

 Cite this work as:
 Gaussian 16, Revision C.01,
 M. J. Frisch, G. W. Trucks, H. B. Schlegel, G. E. Scuseria, 
 M. A. Robb, J. R. Cheeseman, G. Scalmani, V. Barone, 
 G. A. Petersson, H. Nakatsuji, X. Li, M. Caricato, A. V. Marenich, 
 J. Bloino, B. G. Janesko, R. Gomperts, B. Mennucci, H. P. Hratchian, 
 J. V. Ortiz, A. F. Izmaylov, J. L. Sonnenberg, D. Williams-Young, 
 F. Ding, F. Lipparini, F. Egidi, J. Goings, B. Peng, A. Petrone, 
 T. Henderson, D. Ranasinghe, V. G. Zakrzewski, J. Gao, N. Rega, 
 G. Zheng, W. Liang, M. Hada, M. Ehara, K. Toyota, R. Fukuda, 
 J. Hasegawa, M. Ishida, T. Nakajima, Y. Honda, O. Kitao, H. Nakai, 
 T. Vreven, K. Throssell, J. A. Montgomery, Jr., J. E. Peralta, 
 F. Ogliaro, M. J. Bearpark, J. J. Heyd, E. N. Brothers, K. N. Kudin, 
 V. N. Staroverov, T. A. Keith, R. Kobayashi, J. Normand, 
 K. Raghavachari, A. P. Rendell, J. C. Burant, S. S. Iyengar, 
 J. Tomasi, M. Cossi, J. M. Millam, M. Klene, C. Adamo, R. Cammi, 
 J. W. Ochterski, R. L. Martin, K. Morokuma, O. Farkas, 
 J. B. Foresman, and D. J. Fox, Gaussian, Inc., Wallingford CT, 2019.
 
 ******************************************
 Gaussian 16:  ES64L-G16RevC.01  3-Jul-2019
                 7-Nov-2022 
 ******************************************
 %chk=DBAE-conformers-16.chk
 Default route: Maxdisk=0MB
 ----------------------------------------------------------------------
 # opt(maxcycles=1000) freq=Noraman scf(maxcycle=500) uwb97xd/6-31+G(d,
 p) scrf=(smd,solvent=acetonitrile)
 ----------------------------------------------------------------------
 1/6=1000,18=20,19=15,26=3,38=1/1,3;
 2/9=110,12=2,17=6,18=5,40=1/2;
 3/5=1,6=6,7=111,11=2,25=1,30=1,70=32201,71=1,72=2,74=-58,116=2/1,2,3;
 4//1;
 5/5=2,7=500,38=5,53=2/2;
 6/7=2,8=2,9=2,10=2,28=1/1;
 7//1,2,3,16;
 1/6=1000,18=20,19=15,26=3/3(2);
 2/9=110/2;
 99//99;
 2/9=110/2;
 3/5=1,6=6,7=111,11=2,25=1,30=1,70=32205,71=1,72=2,74=-58,116=2/1,2,3;
 4/5=5,16=3,69=1/1;
 5/5=2,7=500,38=5,53=2/2;
 7//1,2,3,16;
 1/6=1000,18=20,19=15,26=3/3(-5);
 2/9=110/2;
 6/7=2,8=2,9=2,10=2,19=2,28=1/1;
 99/9=1/99;
 ----------
 OPT + Freq
 ----------
 Symbolic Z-matrix:
 Charge = -1 Multiplicity = 2
 C                    -0.91067   3.16773  -0.6888 
 C                     0.25344   2.17854  -0.79589 
 N                    -0.03601   0.98736   0.00901 
 C                     1.17531   0.35016   0.54384 
 C                     2.10137  -0.30231  -0.49326 
 C                     3.3704   -0.89374   0.13591 
 C                     3.09925  -2.09937   1.04398 
 C                    -0.9393    0.06607  -0.69435 
 C                    -1.37221  -1.13129   0.15045 
 C                    -2.49169  -1.9318   -0.52282 
 C                    -2.87698  -3.17873   0.27878 
 O                    -1.2768    3.32633   0.68238 
 H                    -1.7771    2.82086  -1.26928 
 H                    -0.61118   4.14629  -1.07787 
 H                     1.15216   2.65182  -0.38479 
 H                     0.44983   1.94376  -1.85509 
 H                     0.86436  -0.38838   1.2886 
 H                     1.73416   1.12303   1.08737 
 H                     2.38548   0.44908  -1.24158 
 H                     1.5647   -1.09706  -1.0291 
 H                     3.89114  -0.11133   0.70621 
 H                     4.05393  -1.19826  -0.66708 
 H                     4.03631  -2.5375    1.40614 
 H                     2.55162  -2.8782    0.49837 
 H                     2.50263  -1.82315   1.92042 
 H                    -0.48648  -0.29383  -1.63562 
 H                    -1.83421   0.63362  -0.97599 
 H                    -1.71135  -0.77649   1.13387 
 H                    -0.51942  -1.79975   0.32671 
 H                    -2.16895  -2.22838  -1.53054 
 H                    -3.3724   -1.28798  -0.65257 
 H                    -3.23066  -2.90626   1.28082 
 H                    -2.01423  -3.84579   0.39822 
 H                    -3.67418  -3.74315  -0.21823 
 H                    -1.10205   2.44667   1.06696 
 

 GradGradGradGradGradGradGradGradGradGradGradGradGradGradGradGradGradGrad
 Berny optimization.
 Initialization pass.
                           ----------------------------
                           !    Initial Parameters    !
                           ! (Angstroms and Degrees)  !
 --------------------------                            --------------------------
 ! Name  Definition              Value          Derivative Info.                !
 --------------------------------------------------------------------------------
 ! R1    R(1,2)                  1.5314         estimate D2E/DX2                !
 ! R2    R(1,12)                 1.428          estimate D2E/DX2                !
 ! R3    R(1,13)                 1.0991         estimate D2E/DX2                !
 ! R4    R(1,14)                 1.0948         estimate D2E/DX2                !
 ! R5    R(2,3)                  1.4665         estimate D2E/DX2                !
 ! R6    R(2,15)                 1.0958         estimate D2E/DX2                !
 ! R7    R(2,16)                 1.1025         estimate D2E/DX2                !
 ! R8    R(3,4)                  1.4695         estimate D2E/DX2                !
 ! R9    R(3,8)                  1.4695         estimate D2E/DX2                !
 ! R10   R(4,5)                  1.5359         estimate D2E/DX2                !
 ! R11   R(4,17)                 1.094          estimate D2E/DX2                !
 ! R12   R(4,18)                 1.0977         estimate D2E/DX2                !
 ! R13   R(5,6)                  1.535          estimate D2E/DX2                !
 ! R14   R(5,19)                 1.0979         estimate D2E/DX2                !
 ! R15   R(5,20)                 1.0985         estimate D2E/DX2                !
 ! R16   R(6,7)                  1.5335         estimate D2E/DX2                !
 ! R17   R(6,21)                 1.0994         estimate D2E/DX2                !
 ! R18   R(6,22)                 1.0976         estimate D2E/DX2                !
 ! R19   R(7,23)                 1.096          estimate D2E/DX2                !
 ! R20   R(7,24)                 1.0973         estimate D2E/DX2                !
 ! R21   R(7,25)                 1.0956         estimate D2E/DX2                !
 ! R22   R(8,9)                  1.528          estimate D2E/DX2                !
 ! R23   R(8,26)                 1.1048         estimate D2E/DX2                !
 ! R24   R(8,27)                 1.0965         estimate D2E/DX2                !
 ! R25   R(9,10)                 1.5321         estimate D2E/DX2                !
 ! R26   R(9,28)                 1.0991         estimate D2E/DX2                !
 ! R27   R(9,29)                 1.0978         estimate D2E/DX2                !
 ! R28   R(10,11)                1.5316         estimate D2E/DX2                !
 ! R29   R(10,30)                1.0989         estimate D2E/DX2                !
 ! R30   R(10,31)                1.0986         estimate D2E/DX2                !
 ! R31   R(11,32)                1.097          estimate D2E/DX2                !
 ! R32   R(11,33)                1.0971         estimate D2E/DX2                !
 ! R33   R(11,34)                1.096          estimate D2E/DX2                !
 ! R34   R(12,35)                0.9758         estimate D2E/DX2                !
 ! A1    A(2,1,12)             109.498          estimate D2E/DX2                !
 ! A2    A(2,1,13)             111.0059         estimate D2E/DX2                !
 ! A3    A(2,1,14)             110.1542         estimate D2E/DX2                !
 ! A4    A(12,1,13)            109.8804         estimate D2E/DX2                !
 ! A5    A(12,1,14)            108.1853         estimate D2E/DX2                !
 ! A6    A(13,1,14)            108.062          estimate D2E/DX2                !
 ! A7    A(1,2,3)              109.6496         estimate D2E/DX2                !
 ! A8    A(1,2,15)             108.5568         estimate D2E/DX2                !
 ! A9    A(1,2,16)             109.8855         estimate D2E/DX2                !
 ! A10   A(3,2,15)             107.8664         estimate D2E/DX2                !
 ! A11   A(3,2,16)             112.922          estimate D2E/DX2                !
 ! A12   A(15,2,16)            107.8363         estimate D2E/DX2                !
 ! A13   A(2,3,4)              112.9101         estimate D2E/DX2                !
 ! A14   A(2,3,8)              111.5841         estimate D2E/DX2                !
 ! A15   A(4,3,8)              114.1452         estimate D2E/DX2                !
 ! A16   A(3,4,5)              115.8154         estimate D2E/DX2                !
 ! A17   A(3,4,17)             107.8311         estimate D2E/DX2                !
 ! A18   A(3,4,18)             107.1315         estimate D2E/DX2                !
 ! A19   A(5,4,17)             110.1378         estimate D2E/DX2                !
 ! A20   A(5,4,18)             109.0551         estimate D2E/DX2                !
 ! A21   A(17,4,18)            106.4354         estimate D2E/DX2                !
 ! A22   A(4,5,6)              112.6684         estimate D2E/DX2                !
 ! A23   A(4,5,19)             108.9987         estimate D2E/DX2                !
 ! A24   A(4,5,20)             110.0088         estimate D2E/DX2                !
 ! A25   A(6,5,19)             109.217          estimate D2E/DX2                !
 ! A26   A(6,5,20)             108.9707         estimate D2E/DX2                !
 ! A27   A(19,5,20)            106.8036         estimate D2E/DX2                !
 ! A28   A(5,6,7)              113.5444         estimate D2E/DX2                !
 ! A29   A(5,6,21)             109.2709         estimate D2E/DX2                !
 ! A30   A(5,6,22)             108.7771         estimate D2E/DX2                !
 ! A31   A(7,6,21)             109.6398         estimate D2E/DX2                !
 ! A32   A(7,6,22)             108.9772         estimate D2E/DX2                !
 ! A33   A(21,6,22)            106.3788         estimate D2E/DX2                !
 ! A34   A(6,7,23)             111.0253         estimate D2E/DX2                !
 ! A35   A(6,7,24)             110.5984         estimate D2E/DX2                !
 ! A36   A(6,7,25)             111.8242         estimate D2E/DX2                !
 ! A37   A(23,7,24)            107.8937         estimate D2E/DX2                !
 ! A38   A(23,7,25)            107.5793         estimate D2E/DX2                !
 ! A39   A(24,7,25)            107.7535         estimate D2E/DX2                !
 ! A40   A(3,8,9)              113.6284         estimate D2E/DX2                !
 ! A41   A(3,8,26)             111.1059         estimate D2E/DX2                !
 ! A42   A(3,8,27)             107.4647         estimate D2E/DX2                !
 ! A43   A(9,8,26)             109.3845         estimate D2E/DX2                !
 ! A44   A(9,8,27)             108.4439         estimate D2E/DX2                !
 ! A45   A(26,8,27)            106.5163         estimate D2E/DX2                !
 ! A46   A(8,9,10)             111.9308         estimate D2E/DX2                !
 ! A47   A(8,9,28)             109.2178         estimate D2E/DX2                !
 ! A48   A(8,9,29)             110.2328         estimate D2E/DX2                !
 ! A49   A(10,9,28)            109.657          estimate D2E/DX2                !
 ! A50   A(10,9,29)            108.6636         estimate D2E/DX2                !
 ! A51   A(28,9,29)            107.0138         estimate D2E/DX2                !
 ! A52   A(9,10,11)            112.2837         estimate D2E/DX2                !
 ! A53   A(9,10,30)            109.2322         estimate D2E/DX2                !
 ! A54   A(9,10,31)            109.3574         estimate D2E/DX2                !
 ! A55   A(11,10,30)           109.5172         estimate D2E/DX2                !
 ! A56   A(11,10,31)           109.7093         estimate D2E/DX2                !
 ! A57   A(30,10,31)           106.5757         estimate D2E/DX2                !
 ! A58   A(10,11,32)           110.9131         estimate D2E/DX2                !
 ! A59   A(10,11,33)           110.7426         estimate D2E/DX2                !
 ! A60   A(10,11,34)           111.4022         estimate D2E/DX2                !
 ! A61   A(32,11,33)           107.7659         estimate D2E/DX2                !
 ! A62   A(32,11,34)           107.9163         estimate D2E/DX2                !
 ! A63   A(33,11,34)           107.9554         estimate D2E/DX2                !
 ! A64   A(1,12,35)            103.438          estimate D2E/DX2                !
 ! D1    D(12,1,2,3)            47.5106         estimate D2E/DX2                !
 ! D2    D(12,1,2,15)          -70.1027         estimate D2E/DX2                !
 ! D3    D(12,1,2,16)          172.1865         estimate D2E/DX2                !
 ! D4    D(13,1,2,3)           -73.9818         estimate D2E/DX2                !
 ! D5    D(13,1,2,15)          168.405          estimate D2E/DX2                !
 ! D6    D(13,1,2,16)           50.6942         estimate D2E/DX2                !
 ! D7    D(14,1,2,3)           166.3676         estimate D2E/DX2                !
 ! D8    D(14,1,2,15)           48.7544         estimate D2E/DX2                !
 ! D9    D(14,1,2,16)          -68.9564         estimate D2E/DX2                !
 ! D10   D(2,1,12,35)          -33.0576         estimate D2E/DX2                !
 ! D11   D(13,1,12,35)          89.1106         estimate D2E/DX2                !
 ! D12   D(14,1,12,35)        -153.1264         estimate D2E/DX2                !
 ! D13   D(1,2,3,4)           -149.8826         estimate D2E/DX2                !
 ! D14   D(1,2,3,8)             79.9696         estimate D2E/DX2                !
 ! D15   D(15,2,3,4)           -31.8391         estimate D2E/DX2                !
 ! D16   D(15,2,3,8)          -161.987          estimate D2E/DX2                !
 ! D17   D(16,2,3,4)            87.2205         estimate D2E/DX2                !
 ! D18   D(16,2,3,8)           -42.9273         estimate D2E/DX2                !
 ! D19   D(2,3,4,5)            -67.7418         estimate D2E/DX2                !
 ! D20   D(2,3,4,17)           168.3855         estimate D2E/DX2                !
 ! D21   D(2,3,4,18)            54.1705         estimate D2E/DX2                !
 ! D22   D(8,3,4,5)             61.0954         estimate D2E/DX2                !
 ! D23   D(8,3,4,17)           -62.7773         estimate D2E/DX2                !
 ! D24   D(8,3,4,18)          -176.9923         estimate D2E/DX2                !
 ! D25   D(2,3,8,9)           -174.8228         estimate D2E/DX2                !
 ! D26   D(2,3,8,26)            61.3155         estimate D2E/DX2                !
 ! D27   D(2,3,8,27)           -54.8456         estimate D2E/DX2                !
 ! D28   D(4,3,8,9)             55.6742         estimate D2E/DX2                !
 ! D29   D(4,3,8,26)           -68.1875         estimate D2E/DX2                !
 ! D30   D(4,3,8,27)           175.6514         estimate D2E/DX2                !
 ! D31   D(3,4,5,6)            177.6188         estimate D2E/DX2                !
 ! D32   D(3,4,5,19)            56.2157         estimate D2E/DX2                !
 ! D33   D(3,4,5,20)           -60.577          estimate D2E/DX2                !
 ! D34   D(17,4,5,6)           -59.7182         estimate D2E/DX2                !
 ! D35   D(17,4,5,19)          178.8787         estimate D2E/DX2                !
 ! D36   D(17,4,5,20)           62.086          estimate D2E/DX2                !
 ! D37   D(18,4,5,6)            56.7362         estimate D2E/DX2                !
 ! D38   D(18,4,5,19)          -64.6669         estimate D2E/DX2                !
 ! D39   D(18,4,5,20)          178.5404         estimate D2E/DX2                !
 ! D40   D(4,5,6,7)             67.3025         estimate D2E/DX2                !
 ! D41   D(4,5,6,21)           -55.4311         estimate D2E/DX2                !
 ! D42   D(4,5,6,22)          -171.177          estimate D2E/DX2                !
 ! D43   D(19,5,6,7)          -171.4187         estimate D2E/DX2                !
 ! D44   D(19,5,6,21)           65.8478         estimate D2E/DX2                !
 ! D45   D(19,5,6,22)          -49.8982         estimate D2E/DX2                !
 ! D46   D(20,5,6,7)           -55.0876         estimate D2E/DX2                !
 ! D47   D(20,5,6,21)         -177.8211         estimate D2E/DX2                !
 ! D48   D(20,5,6,22)           66.4329         estimate D2E/DX2                !
 ! D49   D(5,6,7,23)           175.4528         estimate D2E/DX2                !
 ! D50   D(5,6,7,24)            55.7097         estimate D2E/DX2                !
 ! D51   D(5,6,7,25)           -64.3833         estimate D2E/DX2                !
 ! D52   D(21,6,7,23)          -62.0172         estimate D2E/DX2                !
 ! D53   D(21,6,7,24)          178.2397         estimate D2E/DX2                !
 ! D54   D(21,6,7,25)           58.1467         estimate D2E/DX2                !
 ! D55   D(22,6,7,23)           54.0441         estimate D2E/DX2                !
 ! D56   D(22,6,7,24)          -65.6989         estimate D2E/DX2                !
 ! D57   D(22,6,7,25)          174.208          estimate D2E/DX2                !
 ! D58   D(3,8,9,10)           170.1564         estimate D2E/DX2                !
 ! D59   D(3,8,9,28)            48.5298         estimate D2E/DX2                !
 ! D60   D(3,8,9,29)           -68.7754         estimate D2E/DX2                !
 ! D61   D(26,8,9,10)          -65.0521         estimate D2E/DX2                !
 ! D62   D(26,8,9,28)          173.3214         estimate D2E/DX2                !
 ! D63   D(26,8,9,29)           56.0162         estimate D2E/DX2                !
 ! D64   D(27,8,9,10)           50.7355         estimate D2E/DX2                !
 ! D65   D(27,8,9,28)          -70.8911         estimate D2E/DX2                !
 ! D66   D(27,8,9,29)          171.8037         estimate D2E/DX2                !
 ! D67   D(8,9,10,11)          176.7427         estimate D2E/DX2                !
 ! D68   D(8,9,10,30)           55.0502         estimate D2E/DX2                !
 ! D69   D(8,9,10,31)          -61.2332         estimate D2E/DX2                !
 ! D70   D(28,9,10,11)         -61.8836         estimate D2E/DX2                !
 ! D71   D(28,9,10,30)         176.4239         estimate D2E/DX2                !
 ! D72   D(28,9,10,31)          60.1405         estimate D2E/DX2                !
 ! D73   D(29,9,10,11)          54.7709         estimate D2E/DX2                !
 ! D74   D(29,9,10,30)         -66.9216         estimate D2E/DX2                !
 ! D75   D(29,9,10,31)         176.795          estimate D2E/DX2                !
 ! D76   D(9,10,11,32)          60.0943         estimate D2E/DX2                !
 ! D77   D(9,10,11,33)         -59.5098         estimate D2E/DX2                !
 ! D78   D(9,10,11,34)        -179.6749         estimate D2E/DX2                !
 ! D79   D(30,10,11,32)       -178.376          estimate D2E/DX2                !
 ! D80   D(30,10,11,33)         62.0199         estimate D2E/DX2                !
 ! D81   D(30,10,11,34)        -58.1452         estimate D2E/DX2                !
 ! D82   D(31,10,11,32)        -61.7294         estimate D2E/DX2                !
 ! D83   D(31,10,11,33)        178.6665         estimate D2E/DX2                !
 ! D84   D(31,10,11,34)         58.5014         estimate D2E/DX2                !
 --------------------------------------------------------------------------------
 Trust Radius=3.00D-01 FncErr=1.00D-07 GrdErr=1.00D-06 EigMax=2.50D+02 EigMin=1.00D-04
 Number of steps in this run=    210 maximum allowed number of steps=    210.
 GradGradGradGradGradGradGradGradGradGradGradGradGradGradGradGradGradGrad

                          Input orientation:                          
 ---------------------------------------------------------------------
 Center     Atomic      Atomic             Coordinates (Angstroms)
 Number     Number       Type             X           Y           Z
 ---------------------------------------------------------------------
      1          6           0       -0.910674    3.167734   -0.688801
      2          6           0        0.253437    2.178541   -0.795887
      3          7           0       -0.036009    0.987362    0.009011
      4          6           0        1.175307    0.350165    0.543844
      5          6           0        2.101366   -0.302314   -0.493261
      6          6           0        3.370397   -0.893737    0.135913
      7          6           0        3.099249   -2.099373    1.043978
      8          6           0       -0.939296    0.066068   -0.694350
      9          6           0       -1.372206   -1.131288    0.150452
     10          6           0       -2.491687   -1.931798   -0.522818
     11          6           0       -2.876976   -3.178734    0.278780
     12          8           0       -1.276801    3.326326    0.682376
     13          1           0       -1.777098    2.820865   -1.269283
     14          1           0       -0.611177    4.146286   -1.077866
     15          1           0        1.152159    2.651821   -0.384787
     16          1           0        0.449834    1.943759   -1.855085
     17          1           0        0.864359   -0.388376    1.288596
     18          1           0        1.734156    1.123032    1.087365
     19          1           0        2.385479    0.449076   -1.241583
     20          1           0        1.564703   -1.097056   -1.029104
     21          1           0        3.891138   -0.111327    0.706210
     22          1           0        4.053935   -1.198262   -0.667082
     23          1           0        4.036307   -2.537505    1.406136
     24          1           0        2.551620   -2.878205    0.498372
     25          1           0        2.502635   -1.823150    1.920424
     26          1           0       -0.486485   -0.293828   -1.635624
     27          1           0       -1.834214    0.633617   -0.975990
     28          1           0       -1.711351   -0.776493    1.133867
     29          1           0       -0.519415   -1.799754    0.326712
     30          1           0       -2.168954   -2.228381   -1.530541
     31          1           0       -3.372395   -1.287984   -0.652573
     32          1           0       -3.230664   -2.906261    1.280816
     33          1           0       -2.014225   -3.845792    0.398218
     34          1           0       -3.674177   -3.743146   -0.218232
     35          1           0       -1.102047    2.446670    1.066962
 ---------------------------------------------------------------------
                    Distance matrix (angstroms):
                    1          2          3          4          5
     1  C    0.000000
     2  C    1.531380   0.000000
     3  N    2.450715   1.466475   0.000000
     4  C    3.716104   2.446975   1.469475   0.000000
     5  C    4.599114   3.108226   2.546353   1.535871   0.000000
     6  C    5.958462   4.474660   3.893359   2.555801   1.534953
     7  C    6.842837   5.457499   4.519838   3.154666   2.566768
     8  C    3.101804   2.428058   1.469499   2.466857   3.069490
     9  C    4.404424   3.806999   2.508805   2.973093   3.628673
    10  C    5.341571   4.950269   3.851583   4.448817   4.873626
    11  C    6.714180   6.297205   5.049774   5.379999   5.801183
    12  O    1.428050   2.417498   2.731984   3.858700   5.095210
    13  H    1.099076   2.181686   2.833224   4.255407   5.039736
    14  H    1.094821   2.167738   3.389826   4.498000   5.243061
    15  H    2.147992   1.095764   2.082606   2.482038   3.104782
    16  H    2.170096   1.102540   2.150719   2.969969   3.102735
    17  H    4.439230   3.362642   2.083424   1.093978   2.170854
    18  H    3.785591   2.617875   2.077195   1.097748   2.159822
    19  H    4.308282   2.781240   2.778010   2.159178   1.097858
    20  H    4.942847   3.536008   2.825732   2.172612   1.098522
    21  H    5.979607   4.553314   4.137112   2.759543   2.162982
    22  H    6.611333   5.085585   4.686331   3.485751   2.155333
    23  H    7.836525   6.434291   5.564207   4.155418   3.513941
    24  H    7.067548   5.703283   4.677383   3.509797   2.796655
    25  H    6.585412   5.333926   4.242309   2.894834   2.880943
    26  H    3.613700   2.713900   2.132886   2.815380   2.828787
    27  H    2.712408   2.603366   2.080602   3.383410   4.074038
    28  H    4.418159   4.039377   2.680159   3.154406   4.172433
    29  H    5.085301   4.205278   2.846512   2.746157   3.127807
    30  H    5.604450   5.082190   4.154597   4.704897   4.798054
    31  H    5.090659   5.018366   4.092232   4.979613   5.564080
    32  H    6.793759   6.504373   5.194574   5.528112   6.193419
    33  H    7.182547   6.546813   5.236812   5.272607   5.503550
    34  H    7.457792   7.129251   5.972070   6.391671   6.728438
    35  H    1.907685   2.319361   2.094105   3.139320   4.500340
                    6          7          8          9         10
     6  C    0.000000
     7  C    1.533513   0.000000
     8  C    4.492663   4.901098   0.000000
     9  C    4.748571   4.661489   1.527992   0.000000
    10  C    5.989618   5.808743   2.535904   1.532105   0.000000
    11  C    6.653668   6.120932   3.902604   2.544177   1.531619
    12  O    6.301111   6.979884   3.555077   4.490253   5.529585
    13  H    6.501503   7.303333   2.936216   4.218898   4.863708
    14  H    6.536667   7.568205   4.111317   5.471811   6.386509
    15  H    4.214580   5.329763   3.340080   4.579390   5.857152
    16  H    4.532675   5.636566   2.608202   4.098527   5.044544
    17  H    2.804335   2.825258   2.718780   2.617157   4.114173
    18  H    2.765846   3.499894   3.382164   3.950854   5.457328
    19  H    2.161182   3.496834   3.391207   4.307610   5.474663
    20  H    2.158503   2.767153   2.781174   3.165116   4.172220
    21  H    1.099352   2.166450   5.032508   5.389989   6.750191
    22  H    1.097615   2.156653   5.150886   5.487791   6.588175
    23  H    2.181485   1.095990   5.995603   5.727669   6.833919
    24  H    2.177128   1.097343   4.719939   4.309197   5.231965
    25  H    2.191187   1.095630   4.717316   4.315769   5.560979
    26  H    4.286464   4.826774   1.104790   2.162385   2.818176
    27  H    5.536887   5.990706   1.096500   2.144111   2.686818
    28  H    5.180137   4.989986   2.156004   1.099092   2.165239
    29  H    3.998489   3.701212   2.167985   1.097801   2.151510
    30  H    5.936561   5.865045   2.734185   2.159666   1.098919
    31  H    6.800176   6.739348   2.784811   2.161055   1.098626
    32  H    6.995360   6.385527   4.241035   2.807511   2.179165
    33  H    6.146348   5.441930   4.201407   2.800376   2.177074
    34  H    7.607272   7.083394   4.713425   3.500972   2.184500
    35  H    5.659322   6.190147   2.965801   3.703344   4.861016
                   11         12         13         14         15
    11  C    0.000000
    12  O    6.711129   0.000000
    13  H    6.292966   2.077200   0.000000
    14  H    7.786543   2.052764   1.775599   0.000000
    15  H    7.118260   2.737452   3.064548   2.413118   0.000000
    16  H    6.470006   3.366225   2.464083   2.565334   1.776623
    17  H    4.775292   4.330252   4.880499   5.323580   3.482218
    18  H    6.357793   3.752917   4.556899   4.396462   2.200715
    19  H    6.570079   5.039095   4.790949   4.761943   2.665945
    20  H    5.076657   5.528980   5.155136   5.677100   3.826150
    21  H    7.443054   6.206901   6.680511   6.448336   4.040701
    22  H    7.270106   7.121072   7.107528   7.106067   4.829402
    23  H    7.033888   7.945908   8.346596   8.511311   6.201194
    24  H    5.441341   7.292933   7.371689   7.863287   5.772317
    25  H    5.785569   6.506458   7.075112   7.370192   5.211827
    26  H    4.207383   4.370726   3.391342   4.476746   3.595358
    27  H    4.146784   3.211163   2.207563   3.720893   3.652547
    28  H    2.803679   4.150398   4.326712   5.507803   4.717980
    29  H    2.731662   5.193922   5.047681   6.110372   4.808005
    30  H    2.162893   6.045470   5.071163   6.577839   6.013229
    31  H    2.165131   5.240750   4.450612   6.110359   6.005445
    32  H    1.097002   6.559028   6.435513   7.884384   7.271564
    33  H    1.097073   7.215526   6.876125   8.247465   7.270355
    34  H    1.095953   7.519039   6.913021   8.506708   8.013543
    35  H    5.951199   0.975828   2.460438   2.780276   2.689072
                   16         17         18         19         20
    16  H    0.000000
    17  H    3.936168   0.000000
    18  H    3.313773   1.755391   0.000000
    19  H    2.521345   3.068703   2.510466   0.000000
    20  H    3.342415   2.522785   3.071962   1.763334   0.000000
    21  H    4.756699   3.094725   2.514258   2.524869   3.065172
    22  H    4.926782   3.828052   3.721271   2.414026   2.517454
    23  H    6.601520   3.833252   4.336017   4.319180   3.756875
    24  H    5.762604   3.109751   4.126143   3.758437   2.545521
    25  H    5.714723   2.267538   3.156665   3.895513   3.179094
    26  H    2.435499   3.222543   3.788589   2.992549   2.284822
    27  H    2.775997   3.668122   4.150931   4.232068   3.814537
    28  H    4.583048   2.609378   3.934701   4.891707   3.938747
    29  H    4.439997   2.198189   3.768269   3.994395   2.583712
    30  H    4.936612   4.531461   5.772319   5.291043   3.933387
    31  H    5.147780   4.746316   5.909082   6.042965   4.955115
    32  H    6.848550   4.807184   6.397035   7.011551   5.621788
    33  H    6.683402   4.586147   6.262148   6.363351   4.733025
    34  H    7.213020   5.841517   7.391505   7.439181   5.924962
    35  H    3.346582   3.457363   3.129933   4.634932   4.905410
                   21         22         23         24         25
    21  H    0.000000
    22  H    1.758937   0.000000
    23  H    2.529290   2.468221   0.000000
    24  H    3.081091   2.537211   1.773247   0.000000
    25  H    2.516465   3.080942   1.768317   1.771375   0.000000
    26  H    4.968005   4.729850   5.894237   4.523607   4.890719
    27  H    6.013685   6.174261   7.084741   5.808802   5.764822
    28  H    5.658022   6.054735   6.017546   4.795202   4.412690
    29  H    4.737909   4.718575   4.739624   3.259414   3.416613
    30  H    6.797771   6.366400   6.872037   5.179052   5.822123
    31  H    7.482629   7.426886   7.790279   6.240788   6.436046
    32  H    7.672151   7.731555   7.277400   5.835051   5.869663
    33  H    6.993884   6.705732   6.271878   4.668319   5.177858
    34  H    8.442672   8.148719   7.971431   6.326310   6.812726
    35  H    5.621867   6.548021   7.166569   6.482813   5.652742
                   26         27         28         29         30
    26  H    0.000000
    27  H    1.763986   0.000000
    28  H    3.066487   2.540670   0.000000
    29  H    2.473795   3.057290   1.766146   0.000000
    30  H    2.565977   2.934384   3.068623   2.520732   0.000000
    31  H    3.206745   2.482569   2.492401   3.059478   1.761659
    32  H    4.781312   4.424249   2.620270   3.079861   3.080662
    33  H    4.368862   4.688918   3.170726   2.534925   2.521918
    34  H    4.905933   4.807881   3.805508   3.745166   2.506465
    35  H    3.897848   2.827876   3.280931   4.349660   5.453569
                   31         32         33         34         35
    31  H    0.000000
    32  H    2.525252   0.000000
    33  H    3.080774   1.772405   0.000000
    34  H    2.511483   1.773196   1.773693   0.000000
    35  H    4.696692   5.764599   6.393306   6.825057   0.000000
 Stoichiometry    C10H23NO(1-,2)
 Framework group  C1[X(C10H23NO)]
 Deg. of freedom    99
 Full point group                 C1      NOp   1
 Largest Abelian subgroup         C1      NOp   1
 Largest concise Abelian subgroup C1      NOp   1
                         Standard orientation:                         
 ---------------------------------------------------------------------
 Center     Atomic      Atomic             Coordinates (Angstroms)
 Number     Number       Type             X           Y           Z
 ---------------------------------------------------------------------
      1          6           0        3.220419   -0.928056   -0.278275
      2          6           0        1.785475   -1.367524   -0.583113
      3          7           0        0.842057   -0.498739    0.128029
      4          6           0       -0.406629   -1.184338    0.488712
      5          6           0       -1.313578   -1.583398   -0.684786
      6          6           0       -2.567022   -2.344603   -0.231435
      7          6           0       -3.545553   -1.485891    0.578969
      8          6           0        0.646081    0.776581   -0.575234
      9          6           0       -0.230895    1.768264    0.187811
     10          6           0       -0.214241    3.159043   -0.454688
     11          6           0       -1.152543    4.138640    0.256533
     12          8           0        3.372525   -0.740045    1.129149
     13          1           0        3.468674    0.002059   -0.808581
     14          1           0        3.927465   -1.700296   -0.598219
     15          1           0        1.647278   -2.389103   -0.211660
     16          1           0        1.620433   -1.379317   -1.673167
     17          1           0       -0.952800   -0.541246    1.185071
     18          1           0       -0.129871   -2.085936    1.050474
     19          1           0       -0.741866   -2.210817   -1.381049
     20          1           0       -1.621458   -0.688776   -1.243009
     21          1           0       -2.265353   -3.220011    0.361212
     22          1           0       -3.083749   -2.734174   -1.117993
     23          1           0       -4.459130   -2.044682    0.812044
     24          1           0       -3.833026   -0.590437    0.013564
     25          1           0       -3.108384   -1.155819    1.527832
     26          1           0        0.224269    0.614251   -1.583343
     27          1           0        1.634862    1.227874   -0.720011
     28          1           0        0.120453    1.836826    1.226973
     29          1           0       -1.267888    1.409628    0.222343
     30          1           0       -0.505074    3.073327   -1.510952
     31          1           0        0.811120    3.553348   -0.442935
     32          1           0       -0.864559    4.263564    1.307662
     33          1           0       -2.186386    3.772269    0.233967
     34          1           0       -1.133712    5.126410   -0.217880
     35          1           0        2.495013   -0.419719    1.411293
 ---------------------------------------------------------------------
 Rotational constants (GHZ):           0.6658714           0.6195699           0.3529927
 Standard basis: 6-31+G(d,p) (6D, 7F)
 There are   343 symmetry adapted cartesian basis functions of A   symmetry.
 There are   343 symmetry adapted basis functions of A   symmetry.
   343 basis functions,   545 primitive gaussians,   343 cartesian basis functions
    50 alpha electrons       49 beta electrons
       nuclear repulsion energy       771.5098594193 Hartrees.
 NAtoms=   35 NActive=   35 NUniq=   35 SFac= 1.00D+00 NAtFMM=   60 NAOKFM=F Big=F
 Integral buffers will be    131072 words long.
 Raffenetti 2 integral format.
 Two-electron integral symmetry is turned on.
 Nuclear repulsion after empirical dispersion term =      771.4825283513 Hartrees.
 ------------------------------------------------------------------------------
 Polarizable Continuum Model (PCM)
 =================================
 Model                : PCM.
 Atomic radii         : SMD-Coulomb.
 Polarization charges : Total charges.
 Charge compensation  : None.
 Solution method      : On-the-fly selection.
 Cavity type          : VdW (van der Waals Surface) (Alpha=1.000).
 Cavity algorithm     : GePol (No added spheres)
                        Default sphere list used, NSphG=   35.
                        Lebedev-Laikov grids with approx.  5.0 points / Ang**2.
                        Smoothing algorithm: York/Karplus (Gamma=1.0000).
                        Polarization charges: spherical gaussians, with
                                              point-specific exponents (IZeta= 3).
                        Self-potential: point-specific (ISelfS= 7).
                        Self-field    : sphere-specific E.n sum rule (ISelfD= 2).
 1st derivatives      : Analytical E(r).r(x)/FMM algorithm (CHGder, D1EAlg=3).
                        Cavity 1st derivative terms included.
 Solvent              : Acetonitrile, Eps=  35.688000 Eps(inf)=   1.806874
 ------------------------------------------------------------------------------
 ------------------------------------------------------------------------------
 Atomic radii for non-electrostatic terms: SMD-CDS.
 ------------------------------------------------------------------------------
 Nuclear repulsion after PCM non-electrostatic terms =      771.4779557729 Hartrees.
 One-electron integrals computed using PRISM.
 NBasis=   343 RedAO= T EigKep=  1.17D-05  NBF=   343
 NBsUse=   343 1.00D-06 EigRej= -1.00D+00 NBFU=   343
 ExpMin= 4.38D-02 ExpMax= 5.48D+03 ExpMxC= 8.25D+02 IAcc=3 IRadAn=         5 AccDes= 0.00D+00
 Harris functional with IExCor= 4639 and IRadAn=       5 diagonalized for initial guess.
 HarFok:  IExCor= 4639 AccDes= 0.00D+00 IRadAn=         5 IDoV= 1 UseB2=F ITyADJ=14
 ICtDFT=  3500011 ScaDFX=  1.000000  1.000000  1.000000  1.000000
 FoFCou: FMM=F IPFlag=           0 FMFlag=      100000 FMFlg1=           0
         NFxFlg=           0 DoJE=T BraDBF=F KetDBF=T FulRan=T
         wScrn=  0.000000 ICntrl=       500 IOpCl=  0 I1Cent=   200000004 NGrid=           0
         NMat0=    1 NMatS0=      1 NMatT0=    0 NMatD0=    1 NMtDS0=    0 NMtDT0=    0
 Petite list used in FoFCou.
 Initial guess <Sx>= 0.0000 <Sy>= 0.0000 <Sz>= 0.5000 <S**2>= 0.7500 S= 0.5000
 Requested convergence on RMS density matrix=1.00D-08 within 500 cycles.
 Requested convergence on MAX density matrix=1.00D-06.
 Requested convergence on             energy=1.00D-06.
 No special actions if energy rises.
 Inv3:  Mode=1 IEnd=    15691107.
 Iteration    1 A*A^-1 deviation from unit magnitude is 5.88D-15 for   2273.
 Iteration    1 A*A^-1 deviation from orthogonality  is 2.09D-15 for   2274   2161.
 Iteration    1 A^-1*A deviation from unit magnitude is 6.00D-15 for   2273.
 Iteration    1 A^-1*A deviation from orthogonality  is 2.89D-14 for   1129   1092.
 Rare condition: small coef for last iteration:  0.000D+00
 Rare condition: small coef for last iteration:  0.000D+00
 Restarting incremental Fock formation.
 Restarting incremental Fock formation.
 Restarting incremental Fock formation.
 Restarting incremental Fock formation.
 Restarting incremental Fock formation.
 Restarting incremental Fock formation.
 Error on total polarization charges =  0.22657
 SCF Done:  E(UwB97XD) =  -524.785780532     A.U. after  121 cycles
            NFock=121  Conv=0.22D-08     -V/T= 2.0097
 <Sx>= 0.0000 <Sy>= 0.0000 <Sz>= 0.5000 <S**2>= 0.7506 S= 0.5003
 <L.S>= 0.000000000000E+00
 SMD-CDS (non-electrostatic) energy       (kcal/mol) =      -2.87
 (included in total energy above)
 Annihilation of the first spin contaminant:
 S**2 before annihilation     0.7506,   after     0.7500

 **********************************************************************

            Population analysis using the SCF Density.

 **********************************************************************

 Orbital symmetries:
 Alpha Orbitals:
       Occupied  (A) (A) (A) (A) (A) (A) (A) (A) (A) (A) (A) (A)
                 (A) (A) (A) (A) (A) (A) (A) (A) (A) (A) (A) (A)
                 (A) (A) (A) (A) (A) (A) (A) (A) (A) (A) (A) (A)
                 (A) (A) (A) (A) (A) (A) (A) (A) (A) (A) (A) (A)
                 (A) (A)
       Virtual   (A) (A) (A) (A) (A) (A) (A) (A) (A) (A) (A) (A)
                 (A) (A) (A) (A) (A) (A) (A) (A) (A) (A) (A) (A)
                 (A) (A) (A) (A) (A) (A) (A) (A) (A) (A) (A) (A)
                 (A) (A) (A) (A) (A) (A) (A) (A) (A) (A) (A) (A)
                 (A) (A) (A) (A) (A) (A) (A) (A) (A) (A) (A) (A)
                 (A) (A) (A) (A) (A) (A) (A) (A) (A) (A) (A) (A)
                 (A) (A) (A) (A) (A) (A) (A) (A) (A) (A) (A) (A)
                 (A) (A) (A) (A) (A) (A) (A) (A) (A) (A) (A) (A)
                 (A) (A) (A) (A) (A) (A) (A) (A) (A) (A) (A) (A)
                 (A) (A) (A) (A) (A) (A) (A) (A) (A) (A) (A) (A)
                 (A) (A) (A) (A) (A) (A) (A) (A) (A) (A) (A) (A)
                 (A) (A) (A) (A) (A) (A) (A) (A) (A) (A) (A) (A)
                 (A) (A) (A) (A) (A) (A) (A) (A) (A) (A) (A) (A)
                 (A) (A) (A) (A) (A) (A) (A) (A) (A) (A) (A) (A)
                 (A) (A) (A) (A) (A) (A) (A) (A) (A) (A) (A) (A)
                 (A) (A) (A) (A) (A) (A) (A) (A) (A) (A) (A) (A)
                 (A) (A) (A) (A) (A) (A) (A) (A) (A) (A) (A) (A)
                 (A) (A) (A) (A) (A) (A) (A) (A) (A) (A) (A) (A)
                 (A) (A) (A) (A) (A) (A) (A) (A) (A) (A) (A) (A)
                 (A) (A) (A) (A) (A) (A) (A) (A) (A) (A) (A) (A)
                 (A) (A) (A) (A) (A) (A) (A) (A) (A) (A) (A) (A)
                 (A) (A) (A) (A) (A) (A) (A) (A) (A) (A) (A) (A)
                 (A) (A) (A) (A) (A) (A) (A) (A) (A) (A) (A) (A)
                 (A) (A) (A) (A) (A) (A) (A) (A) (A) (A) (A) (A)
                 (A) (A) (A) (A) (A)
 Beta  Orbitals:
       Occupied  (A) (A) (A) (A) (A) (A) (A) (A) (A) (A) (A) (A)
                 (A) (A) (A) (A) (A) (A) (A) (A) (A) (A) (A) (A)
                 (A) (A) (A) (A) (A) (A) (A) (A) (A) (A) (A) (A)
                 (A) (A) (A) (A) (A) (A) (A) (A) (A) (A) (A) (A)
                 (A)
       Virtual   (A) (A) (A) (A) (A) (A) (A) (A) (A) (A) (A) (A)
                 (A) (A) (A) (A) (A) (A) (A) (A) (A) (A) (A) (A)
                 (A) (A) (A) (A) (A) (A) (A) (A) (A) (A) (A) (A)
                 (A) (A) (A) (A) (A) (A) (A) (A) (A) (A) (A) (A)
                 (A) (A) (A) (A) (A) (A) (A) (A) (A) (A) (A) (A)
                 (A) (A) (A) (A) (A) (A) (A) (A) (A) (A) (A) (A)
                 (A) (A) (A) (A) (A) (A) (A) (A) (A) (A) (A) (A)
                 (A) (A) (A) (A) (A) (A) (A) (A) (A) (A) (A) (A)
                 (A) (A) (A) (A) (A) (A) (A) (A) (A) (A) (A) (A)
                 (A) (A) (A) (A) (A) (A) (A) (A) (A) (A) (A) (A)
                 (A) (A) (A) (A) (A) (A) (A) (A) (A) (A) (A) (A)
                 (A) (A) (A) (A) (A) (A) (A) (A) (A) (A) (A) (A)
                 (A) (A) (A) (A) (A) (A) (A) (A) (A) (A) (A) (A)
                 (A) (A) (A) (A) (A) (A) (A) (A) (A) (A) (A) (A)
                 (A) (A) (A) (A) (A) (A) (A) (A) (A) (A) (A) (A)
                 (A) (A) (A) (A) (A) (A) (A) (A) (A) (A) (A) (A)
                 (A) (A) (A) (A) (A) (A) (A) (A) (A) (A) (A) (A)
                 (A) (A) (A) (A) (A) (A) (A) (A) (A) (A) (A) (A)
                 (A) (A) (A) (A) (A) (A) (A) (A) (A) (A) (A) (A)
                 (A) (A) (A) (A) (A) (A) (A) (A) (A) (A) (A) (A)
                 (A) (A) (A) (A) (A) (A) (A) (A) (A) (A) (A) (A)
                 (A) (A) (A) (A) (A) (A) (A) (A) (A) (A) (A) (A)
                 (A) (A) (A) (A) (A) (A) (A) (A) (A) (A) (A) (A)
                 (A) (A) (A) (A) (A) (A) (A) (A) (A) (A) (A) (A)
                 (A) (A) (A) (A) (A) (A)
 The electronic state is 2-A.
 Alpha  occ. eigenvalues --  -19.26185 -14.44226 -10.32807 -10.30876 -10.30696
 Alpha  occ. eigenvalues --  -10.30264 -10.28422 -10.28136 -10.27625 -10.27230
 Alpha  occ. eigenvalues --  -10.26673 -10.26637  -1.10931  -1.01303  -0.88495
 Alpha  occ. eigenvalues --   -0.87409  -0.82736  -0.81071  -0.77399  -0.73018
 Alpha  occ. eigenvalues --   -0.71373  -0.66808  -0.66223  -0.63202  -0.58558
 Alpha  occ. eigenvalues --   -0.56353  -0.54924  -0.54306  -0.53602  -0.51722
 Alpha  occ. eigenvalues --   -0.50068  -0.49924  -0.49293  -0.47552  -0.46636
 Alpha  occ. eigenvalues --   -0.45653  -0.45298  -0.44009  -0.42323  -0.41933
 Alpha  occ. eigenvalues --   -0.40896  -0.40305  -0.39650  -0.39523  -0.38981
 Alpha  occ. eigenvalues --   -0.38863  -0.38465  -0.34685  -0.28866  -0.06485
 Alpha virt. eigenvalues --    0.07593   0.08116   0.08721   0.09559   0.09902
 Alpha virt. eigenvalues --    0.10135   0.10434   0.11687   0.12409   0.12705
 Alpha virt. eigenvalues --    0.13344   0.13676   0.13932   0.14216   0.14653
 Alpha virt. eigenvalues --    0.16006   0.16505   0.16730   0.16956   0.18085
 Alpha virt. eigenvalues --    0.18406   0.18644   0.18801   0.20051   0.20129
 Alpha virt. eigenvalues --    0.20776   0.21644   0.22213   0.22798   0.23078
 Alpha virt. eigenvalues --    0.23655   0.24255   0.24794   0.25201   0.25461
 Alpha virt. eigenvalues --    0.26750   0.26920   0.27484   0.27948   0.28332
 Alpha virt. eigenvalues --    0.28917   0.29640   0.29979   0.30206   0.30798
 Alpha virt. eigenvalues --    0.31305   0.31753   0.32250   0.32634   0.33338
 Alpha virt. eigenvalues --    0.34263   0.34367   0.34762   0.35294   0.35478
 Alpha virt. eigenvalues --    0.36358   0.36603   0.36701   0.37123   0.37348
 Alpha virt. eigenvalues --    0.38128   0.38946   0.39347   0.40220   0.41769
 Alpha virt. eigenvalues --    0.41929   0.42544   0.42821   0.43129   0.43615
 Alpha virt. eigenvalues --    0.44599   0.44928   0.46113   0.47028   0.47720
 Alpha virt. eigenvalues --    0.48168   0.49272   0.50691   0.53045   0.54363
 Alpha virt. eigenvalues --    0.59232   0.70983   0.71986   0.73341   0.74963
 Alpha virt. eigenvalues --    0.75419   0.75806   0.76218   0.77250   0.78029
 Alpha virt. eigenvalues --    0.79103   0.79641   0.80759   0.81343   0.82336
 Alpha virt. eigenvalues --    0.82765   0.83446   0.83936   0.85241   0.86656
 Alpha virt. eigenvalues --    0.89491   0.90857   0.92550   0.94011   0.95746
 Alpha virt. eigenvalues --    0.98812   0.99200   1.01278   1.02661   1.03250
 Alpha virt. eigenvalues --    1.04167   1.04569   1.05745   1.06935   1.08431
 Alpha virt. eigenvalues --    1.09694   1.10041   1.10983   1.11893   1.13101
 Alpha virt. eigenvalues --    1.14553   1.16590   1.17326   1.18313   1.20014
 Alpha virt. eigenvalues --    1.20583   1.21183   1.22401   1.23411   1.23581
 Alpha virt. eigenvalues --    1.24203   1.24932   1.25780   1.26391   1.26656
 Alpha virt. eigenvalues --    1.27801   1.29312   1.30655   1.34158   1.34576
 Alpha virt. eigenvalues --    1.36230   1.41449   1.43624   1.44803   1.46780
 Alpha virt. eigenvalues --    1.47900   1.50207   1.52621   1.53782   1.55241
 Alpha virt. eigenvalues --    1.56168   1.59577   1.62724   1.63300   1.67589
 Alpha virt. eigenvalues --    1.70132   1.71444   1.72995   1.75112   1.76877
 Alpha virt. eigenvalues --    1.78591   1.78982   1.80102   1.82396   1.84444
 Alpha virt. eigenvalues --    1.88825   1.91838   1.94516   1.95176   1.97377
 Alpha virt. eigenvalues --    1.98190   2.00211   2.00493   2.01507   2.03087
 Alpha virt. eigenvalues --    2.04253   2.05248   2.06742   2.08173   2.09837
 Alpha virt. eigenvalues --    2.10958   2.12838   2.13625   2.14853   2.15139
 Alpha virt. eigenvalues --    2.15913   2.18487   2.20352   2.21907   2.22062
 Alpha virt. eigenvalues --    2.22851   2.23626   2.24262   2.25030   2.26105
 Alpha virt. eigenvalues --    2.26807   2.27605   2.28838   2.30424   2.33500
 Alpha virt. eigenvalues --    2.34809   2.36031   2.36895   2.38336   2.39672
 Alpha virt. eigenvalues --    2.40310   2.40477   2.41859   2.42779   2.44301
 Alpha virt. eigenvalues --    2.45305   2.47511   2.50146   2.52387   2.54261
 Alpha virt. eigenvalues --    2.55877   2.57667   2.59447   2.60751   2.61398
 Alpha virt. eigenvalues --    2.63862   2.64086   2.68094   2.68938   2.72422
 Alpha virt. eigenvalues --    2.73932   2.75584   2.76596   2.78729   2.81037
 Alpha virt. eigenvalues --    2.81469   2.82811   2.83947   2.84092   2.86855
 Alpha virt. eigenvalues --    2.87263   2.88807   2.89760   2.91055   2.91991
 Alpha virt. eigenvalues --    2.93170   2.95185   2.98055   2.98397   2.98825
 Alpha virt. eigenvalues --    2.99905   3.00474   3.02353   3.02391   3.02872
 Alpha virt. eigenvalues --    3.03713   3.04168   3.06390   3.07118   3.09800
 Alpha virt. eigenvalues --    3.12555   3.14386   3.18803   3.35052   3.37289
 Alpha virt. eigenvalues --    3.42286   3.43468   3.44012   3.44660   3.46121
 Alpha virt. eigenvalues --    3.46957   3.47515   3.50614   3.52874   3.55153
 Alpha virt. eigenvalues --    3.57654   3.57855   3.59868   3.60569   3.62814
 Alpha virt. eigenvalues --    3.64708   3.66565   3.68235   3.71104   3.73331
 Alpha virt. eigenvalues --    3.73740   4.37706   4.43928   4.46171   4.51173
 Alpha virt. eigenvalues --    4.60196   4.62031   4.64570   4.72681   4.76528
 Alpha virt. eigenvalues --    4.82117   4.86552   4.88502
  Beta  occ. eigenvalues --  -19.26185 -14.44219 -10.32806 -10.30874 -10.30696
  Beta  occ. eigenvalues --  -10.30258 -10.28422 -10.28135 -10.27625 -10.27215
  Beta  occ. eigenvalues --  -10.26589 -10.26472  -1.10931  -1.01288  -0.88484
  Beta  occ. eigenvalues --   -0.87279  -0.82716  -0.81012  -0.77347  -0.72950
  Beta  occ. eigenvalues --   -0.71349  -0.66776  -0.66001  -0.63120  -0.58536
  Beta  occ. eigenvalues --   -0.56341  -0.54916  -0.54299  -0.53523  -0.51663
  Beta  occ. eigenvalues --   -0.50050  -0.49915  -0.49150  -0.47532  -0.46592
  Beta  occ. eigenvalues --   -0.45607  -0.45289  -0.43993  -0.42219  -0.41923
  Beta  occ. eigenvalues --   -0.40878  -0.40276  -0.39567  -0.39480  -0.38965
  Beta  occ. eigenvalues --   -0.38754  -0.38394  -0.34684  -0.28849
  Beta virt. eigenvalues --    0.08383   0.08495   0.09051   0.10007   0.10374
  Beta virt. eigenvalues --    0.11126   0.11611   0.12158   0.13020   0.13237
  Beta virt. eigenvalues --    0.13771   0.14387   0.14917   0.15297   0.16399
  Beta virt. eigenvalues --    0.16615   0.16997   0.17226   0.18228   0.18522
  Beta virt. eigenvalues --    0.19166   0.19873   0.20256   0.20655   0.21268
  Beta virt. eigenvalues --    0.22332   0.22566   0.22832   0.23344   0.24063
  Beta virt. eigenvalues --    0.24349   0.25063   0.25323   0.25995   0.26963
  Beta virt. eigenvalues --    0.27333   0.27429   0.27823   0.28761   0.29051
  Beta virt. eigenvalues --    0.29469   0.29972   0.30714   0.30881   0.31482
  Beta virt. eigenvalues --    0.31791   0.32509   0.32757   0.33017   0.33403
  Beta virt. eigenvalues --    0.34302   0.34726   0.35211   0.35488   0.35949
  Beta virt. eigenvalues --    0.36219   0.36787   0.37183   0.37668   0.38294
  Beta virt. eigenvalues --    0.38395   0.39320   0.40298   0.40689   0.41748
  Beta virt. eigenvalues --    0.42356   0.42797   0.43070   0.43433   0.43960
  Beta virt. eigenvalues --    0.44859   0.45341   0.45498   0.46382   0.47962
  Beta virt. eigenvalues --    0.48365   0.48630   0.50498   0.51004   0.53594
  Beta virt. eigenvalues --    0.54506   0.59412   0.71177   0.72189   0.74104
  Beta virt. eigenvalues --    0.75086   0.75603   0.76186   0.76518   0.77773
  Beta virt. eigenvalues --    0.78332   0.79245   0.79930   0.81162   0.81617
  Beta virt. eigenvalues --    0.82481   0.82888   0.83706   0.84161   0.85599
  Beta virt. eigenvalues --    0.86880   0.89602   0.91040   0.92592   0.94131
  Beta virt. eigenvalues --    0.95791   0.98912   0.99468   1.01512   1.02756
  Beta virt. eigenvalues --    1.03343   1.04495   1.04676   1.05927   1.07019
  Beta virt. eigenvalues --    1.08544   1.09789   1.10422   1.11166   1.12118
  Beta virt. eigenvalues --    1.13426   1.14713   1.16904   1.17702   1.18408
  Beta virt. eigenvalues --    1.20140   1.20758   1.21501   1.22698   1.23571
  Beta virt. eigenvalues --    1.23727   1.24355   1.25346   1.26010   1.26563
  Beta virt. eigenvalues --    1.26802   1.28099   1.29390   1.30723   1.34288
  Beta virt. eigenvalues --    1.34645   1.36327   1.41587   1.43676   1.44860
  Beta virt. eigenvalues --    1.46823   1.47928   1.50258   1.52677   1.53887
  Beta virt. eigenvalues --    1.55304   1.56230   1.59599   1.62757   1.63312
  Beta virt. eigenvalues --    1.67624   1.70164   1.71465   1.73003   1.75133
  Beta virt. eigenvalues --    1.76918   1.78624   1.78998   1.80117   1.82421
  Beta virt. eigenvalues --    1.84483   1.88873   1.91871   1.94551   1.95237
  Beta virt. eigenvalues --    1.97404   1.98369   2.00262   2.00581   2.01597
  Beta virt. eigenvalues --    2.03157   2.04384   2.05279   2.06755   2.08214
  Beta virt. eigenvalues --    2.09861   2.11092   2.12874   2.13645   2.14866
  Beta virt. eigenvalues --    2.15149   2.15897   2.18492   2.20359   2.21920
  Beta virt. eigenvalues --    2.22132   2.22888   2.23683   2.24341   2.25151
  Beta virt. eigenvalues --    2.26157   2.26836   2.27636   2.28872   2.30450
  Beta virt. eigenvalues --    2.33526   2.34839   2.36040   2.36903   2.38317
  Beta virt. eigenvalues --    2.39696   2.40328   2.40527   2.41892   2.42786
  Beta virt. eigenvalues --    2.44304   2.45314   2.47523   2.50191   2.52409
  Beta virt. eigenvalues --    2.54276   2.55892   2.57677   2.59462   2.60783
  Beta virt. eigenvalues --    2.61417   2.63871   2.64104   2.68128   2.68990
  Beta virt. eigenvalues --    2.72458   2.73960   2.75606   2.76607   2.78743
  Beta virt. eigenvalues --    2.81064   2.81513   2.82827   2.83958   2.84142
  Beta virt. eigenvalues --    2.86861   2.87294   2.88847   2.89782   2.91075
  Beta virt. eigenvalues --    2.92013   2.93199   2.95209   2.98062   2.98407
  Beta virt. eigenvalues --    2.98855   2.99957   3.00487   3.02375   3.02417
  Beta virt. eigenvalues --    3.02885   3.03723   3.04225   3.06397   3.07152
  Beta virt. eigenvalues --    3.09833   3.12569   3.14393   3.18808   3.35056
  Beta virt. eigenvalues --    3.37396   3.42296   3.43474   3.44087   3.44697
  Beta virt. eigenvalues --    3.46174   3.47043   3.47616   3.50701   3.52911
  Beta virt. eigenvalues --    3.55216   3.57669   3.57886   3.59956   3.60573
  Beta virt. eigenvalues --    3.62869   3.64727   3.66587   3.68329   3.71150
  Beta virt. eigenvalues --    3.73392   3.73745   4.37719   4.43987   4.46214
  Beta virt. eigenvalues --    4.51296   4.60210   4.62043   4.64643   4.72689
  Beta virt. eigenvalues --    4.76741   4.82126   4.86621   4.88530
          Condensed to atoms (all electrons):
               1          2          3          4          5          6
     1  C   14.245667  -7.115327   0.852239  -2.794991   0.178680  -4.390902
     2  C   -7.115327  12.306201  -0.340254   2.014010   2.628486  -2.456705
     3  N    0.852239  -0.340254   7.999573  -0.369630   1.441000  -3.828261
     4  C   -2.794991   2.014010  -0.369630   9.904763   5.687726  -8.912150
     5  C    0.178680   2.628486   1.441000   5.687726  46.453605 -71.796444
     6  C   -4.390902  -2.456705  -3.828261  -8.912150 -71.796444 139.987718
     7  C    0.536713   0.573626   0.664462   2.878678  18.703625 -34.817883
     8  C    3.057271  -1.679691   0.993454  -1.711947   2.774243  -7.872614
     9  C   -0.229318   0.080238   0.026021   0.314107  -0.369135   1.062069
    10  C    0.766644  -0.477161   0.163766  -0.772199   0.632941  -1.869046
    11  C    0.164115  -0.094180   0.041118  -0.304861   0.332873  -0.786048
    12  O    0.206807  -0.044375  -0.009810  -0.059353   0.003218  -0.039562
    13  H    0.396210  -0.022152  -0.009645  -0.001624   0.003520   0.001535
    14  H    0.464407  -0.089971   0.009881   0.004528  -0.000383   0.000380
    15  H   -0.044771   0.411985  -0.058960   0.021314  -0.007952   0.017175
    16  H   -0.011760   0.366587  -0.030324  -0.028848   0.018366   0.006406
    17  H   -0.009066   0.010832  -0.064129   0.429606  -0.123240   0.126734
    18  H   -0.040979  -0.016160  -0.088947   0.416672  -0.151630   0.268897
    19  H    0.050821   0.049619   0.024406  -0.017120   0.761288  -0.753349
    20  H   -0.003747  -0.006365   0.002754  -0.049554   0.341837   0.074854
    21  H    0.006737   0.020384   0.010813   0.125805   0.401575  -0.459911
    22  H    0.001796   0.009165   0.002460   0.059035   0.290411  -0.156339
    23  H   -0.000039  -0.000195   0.000315  -0.005025   0.021687  -0.042212
    24  H    0.000514   0.003026   0.001816   0.018965   0.163612  -0.358022
    25  H    0.001021   0.002353   0.002983   0.042145   0.126511  -0.339035
    26  H    0.013748  -0.017567  -0.039988  -0.026011   0.027681  -0.026466
    27  H    0.019412  -0.026999  -0.081285  -0.018388  -0.013351  -0.013375
    28  H    0.004434  -0.000250   0.021968  -0.013285   0.007499  -0.008209
    29  H    0.002965   0.000173  -0.002733  -0.022109   0.024629  -0.071247
    30  H    0.001021  -0.000486   0.000324   0.002223   0.000081  -0.001704
    31  H   -0.000013   0.000464  -0.003251  -0.006183   0.000082  -0.000559
    32  H   -0.000008  -0.000090  -0.000342   0.001789  -0.000384   0.000373
    33  H   -0.000018   0.000082  -0.000057  -0.002362   0.000614  -0.000111
    34  H    0.000013  -0.000095  -0.000000   0.000035  -0.000043   0.000019
    35  H   -0.018678  -0.046050   0.066545   0.021279   0.004865   0.007334
               7          8          9         10         11         12
     1  C    0.536713   3.057271  -0.229318   0.766644   0.164115   0.206807
     2  C    0.573626  -1.679691   0.080238  -0.477161  -0.094180  -0.044375
     3  N    0.664462   0.993454   0.026021   0.163766   0.041118  -0.009810
     4  C    2.878678  -1.711947   0.314107  -0.772199  -0.304861  -0.059353
     5  C   18.703625   2.774243  -0.369135   0.632941   0.332873   0.003218
     6  C  -34.817883  -7.872614   1.062069  -1.869046  -0.786048  -0.039562
     7  C   15.965551   1.356656  -0.233250   0.345574   0.182090   0.004472
     8  C    1.356656   8.490944  -0.542433   0.740127  -0.053282   0.043737
     9  C   -0.233250  -0.542433   7.004484  -0.678571  -0.782481  -0.017045
    10  C    0.345574   0.740127  -0.678571   6.559948   0.251774   0.006578
    11  C    0.182090  -0.053282  -0.782481   0.251774   6.417660   0.000603
    12  O    0.004472   0.043737  -0.017045   0.006578   0.000603   8.344948
    13  H   -0.000133  -0.025161   0.020750  -0.004285  -0.000016  -0.059147
    14  H    0.000004   0.005634  -0.002406   0.000065  -0.000002  -0.054763
    15  H   -0.001538  -0.004808  -0.003208  -0.000344  -0.000054   0.000978
    16  H   -0.000705  -0.032396   0.014973  -0.002168  -0.000223   0.003321
    17  H   -0.023743  -0.000857  -0.022839  -0.006300  -0.001678   0.000298
    18  H   -0.052334  -0.021718  -0.002639  -0.002927  -0.000499   0.000618
    19  H    0.121087   0.087180  -0.008261   0.008251   0.000890   0.000028
    20  H   -0.027005  -0.026280   0.016953  -0.005300   0.000044   0.000056
    21  H    0.198559   0.014014   0.002173   0.001074   0.000181   0.000029
    22  H    0.122771   0.007353   0.000247   0.000594   0.000155   0.000001
    23  H    0.391935   0.000034   0.000120   0.000016  -0.000028   0.000000
    24  H    0.518017   0.002671  -0.000104   0.002442   0.001466   0.000001
    25  H    0.512727   0.009076  -0.001467   0.001146   0.000752   0.000002
    26  H    0.003640   0.411132  -0.053237   0.008479  -0.002554  -0.001392
    27  H    0.001309   0.466150  -0.065453   0.044397   0.009859   0.002052
    28  H    0.001837  -0.041431   0.363868   0.009964  -0.019040  -0.000433
    29  H    0.017213   0.001589   0.350809  -0.000080   0.018543   0.000122
    30  H    0.000300   0.002074  -0.064024   0.402729  -0.018723  -0.000006
    31  H    0.000118  -0.001807  -0.074137   0.405518   0.004341   0.000026
    32  H   -0.000109   0.000316   0.011543  -0.084861   0.430809  -0.000001
    33  H    0.000088  -0.000656  -0.006857  -0.075283   0.443183  -0.000000
    34  H   -0.000015  -0.010167   0.029785  -0.090401   0.436579  -0.000000
    35  H   -0.000659  -0.023051   0.004249  -0.003448  -0.000172   0.239070
              13         14         15         16         17         18
     1  C    0.396210   0.464407  -0.044771  -0.011760  -0.009066  -0.040979
     2  C   -0.022152  -0.089971   0.411985   0.366587   0.010832  -0.016160
     3  N   -0.009645   0.009881  -0.058960  -0.030324  -0.064129  -0.088947
     4  C   -0.001624   0.004528   0.021314  -0.028848   0.429606   0.416672
     5  C    0.003520  -0.000383  -0.007952   0.018366  -0.123240  -0.151630
     6  C    0.001535   0.000380   0.017175   0.006406   0.126734   0.268897
     7  C   -0.000133   0.000004  -0.001538  -0.000705  -0.023743  -0.052334
     8  C   -0.025161   0.005634  -0.004808  -0.032396  -0.000857  -0.021718
     9  C    0.020750  -0.002406  -0.003208   0.014973  -0.022839  -0.002639
    10  C   -0.004285   0.000065  -0.000344  -0.002168  -0.006300  -0.002927
    11  C   -0.000016  -0.000002  -0.000054  -0.000223  -0.001678  -0.000499
    12  O   -0.059147  -0.054763   0.000978   0.003321   0.000298   0.000618
    13  H    0.599050  -0.042082   0.003994  -0.002507   0.000011  -0.000007
    14  H   -0.042082   0.544742  -0.005958   0.000516   0.000002  -0.000011
    15  H    0.003994  -0.005958   0.531383  -0.031451   0.000400   0.003630
    16  H   -0.002507   0.000516  -0.031451   0.566889  -0.000311  -0.000208
    17  H    0.000011   0.000002   0.000400  -0.000311   0.561729  -0.027257
    18  H   -0.000007  -0.000011   0.003630  -0.000208  -0.027257   0.556858
    19  H   -0.000001   0.000002  -0.000429  -0.001957   0.004205  -0.006642
    20  H    0.000001  -0.000000   0.000091   0.000255  -0.005568   0.004458
    21  H   -0.000000   0.000000  -0.000015   0.000000  -0.000601   0.001820
    22  H   -0.000000   0.000000  -0.000001   0.000005  -0.000172  -0.000158
    23  H    0.000000   0.000000   0.000000   0.000000   0.000014  -0.000010
    24  H   -0.000000  -0.000000  -0.000000  -0.000000  -0.000040   0.000027
    25  H   -0.000000   0.000000  -0.000000   0.000000  -0.001661  -0.000099
    26  H    0.000156  -0.000021  -0.000136   0.007903  -0.000568  -0.000281
    27  H    0.002326  -0.000046   0.000123  -0.002617   0.000116  -0.000079
    28  H    0.000018  -0.000001   0.000001   0.000003   0.000137  -0.000051
    29  H   -0.000002   0.000000   0.000003  -0.000006  -0.002918   0.000120
    30  H    0.000001  -0.000000   0.000000  -0.000001   0.000008  -0.000000
    31  H   -0.000007   0.000000   0.000000   0.000001  -0.000008   0.000000
    32  H    0.000000  -0.000000  -0.000000  -0.000000   0.000001   0.000000
    33  H   -0.000000   0.000000  -0.000000   0.000000  -0.000002   0.000000
    34  H    0.000000  -0.000000   0.000000  -0.000000  -0.000000  -0.000000
    35  H   -0.001183   0.005448  -0.001501   0.001035  -0.000057  -0.000474
              19         20         21         22         23         24
     1  C    0.050821  -0.003747   0.006737   0.001796  -0.000039   0.000514
     2  C    0.049619  -0.006365   0.020384   0.009165  -0.000195   0.003026
     3  N    0.024406   0.002754   0.010813   0.002460   0.000315   0.001816
     4  C   -0.017120  -0.049554   0.125805   0.059035  -0.005025   0.018965
     5  C    0.761288   0.341837   0.401575   0.290411   0.021687   0.163612
     6  C   -0.753349   0.074854  -0.459911  -0.156339  -0.042212  -0.358022
     7  C    0.121087  -0.027005   0.198559   0.122771   0.391935   0.518017
     8  C    0.087180  -0.026280   0.014014   0.007353   0.000034   0.002671
     9  C   -0.008261   0.016953   0.002173   0.000247   0.000120  -0.000104
    10  C    0.008251  -0.005300   0.001074   0.000594   0.000016   0.002442
    11  C    0.000890   0.000044   0.000181   0.000155  -0.000028   0.001466
    12  O    0.000028   0.000056   0.000029   0.000001   0.000000   0.000001
    13  H   -0.000001   0.000001  -0.000000  -0.000000   0.000000  -0.000000
    14  H    0.000002  -0.000000   0.000000   0.000000   0.000000  -0.000000
    15  H   -0.000429   0.000091  -0.000015  -0.000001   0.000000  -0.000000
    16  H   -0.001957   0.000255   0.000000   0.000005   0.000000  -0.000000
    17  H    0.004205  -0.005568  -0.000601  -0.000172   0.000014  -0.000040
    18  H   -0.006642   0.004458   0.001820  -0.000158  -0.000010   0.000027
    19  H    0.579170  -0.034352  -0.000335  -0.002870  -0.000110   0.000170
    20  H   -0.034352   0.563221   0.004674  -0.003680   0.000040   0.003285
    21  H   -0.000335   0.004674   0.594917  -0.028032  -0.002758   0.005103
    22  H   -0.002870  -0.003680  -0.028032   0.586459  -0.004419  -0.003560
    23  H   -0.000110   0.000040  -0.002758  -0.004419   0.544203  -0.027081
    24  H    0.000170   0.003285   0.005103  -0.003560  -0.027081   0.548223
    25  H    0.000022  -0.000244  -0.003689   0.004868  -0.027449  -0.029510
    26  H    0.000362  -0.002391  -0.000004   0.000015  -0.000000  -0.000002
    27  H    0.000013   0.000141   0.000000  -0.000000   0.000000   0.000000
    28  H   -0.000001  -0.000028   0.000000   0.000000  -0.000000   0.000001
    29  H    0.000045   0.001156   0.000010   0.000005   0.000001   0.000197
    30  H    0.000000  -0.000019   0.000000   0.000000  -0.000000   0.000000
    31  H    0.000000   0.000000   0.000000   0.000000   0.000000  -0.000000
    32  H   -0.000000  -0.000000  -0.000000  -0.000000  -0.000000  -0.000000
    33  H   -0.000000  -0.000001  -0.000000   0.000000   0.000000  -0.000001
    34  H   -0.000000  -0.000000  -0.000000  -0.000000   0.000000   0.000000
    35  H   -0.000005  -0.000001  -0.000000   0.000000  -0.000000  -0.000000
              25         26         27         28         29         30
     1  C    0.001021   0.013748   0.019412   0.004434   0.002965   0.001021
     2  C    0.002353  -0.017567  -0.026999  -0.000250   0.000173  -0.000486
     3  N    0.002983  -0.039988  -0.081285   0.021968  -0.002733   0.000324
     4  C    0.042145  -0.026011  -0.018388  -0.013285  -0.022109   0.002223
     5  C    0.126511   0.027681  -0.013351   0.007499   0.024629   0.000081
     6  C   -0.339035  -0.026466  -0.013375  -0.008209  -0.071247  -0.001704
     7  C    0.512727   0.003640   0.001309   0.001837   0.017213   0.000300
     8  C    0.009076   0.411132   0.466150  -0.041431   0.001589   0.002074
     9  C   -0.001467  -0.053237  -0.065453   0.363868   0.350809  -0.064024
    10  C    0.001146   0.008479   0.044397   0.009964  -0.000080   0.402729
    11  C    0.000752  -0.002554   0.009859  -0.019040   0.018543  -0.018723
    12  O    0.000002  -0.001392   0.002052  -0.000433   0.000122  -0.000006
    13  H   -0.000000   0.000156   0.002326   0.000018  -0.000002   0.000001
    14  H    0.000000  -0.000021  -0.000046  -0.000001   0.000000  -0.000000
    15  H   -0.000000  -0.000136   0.000123   0.000001   0.000003   0.000000
    16  H    0.000000   0.007903  -0.002617   0.000003  -0.000006  -0.000001
    17  H   -0.001661  -0.000568   0.000116   0.000137  -0.002918   0.000008
    18  H   -0.000099  -0.000281  -0.000079  -0.000051   0.000120  -0.000000
    19  H    0.000022   0.000362   0.000013  -0.000001   0.000045   0.000000
    20  H   -0.000244  -0.002391   0.000141  -0.000028   0.001156  -0.000019
    21  H   -0.003689  -0.000004   0.000000   0.000000   0.000010   0.000000
    22  H    0.004868   0.000015  -0.000000   0.000000   0.000005   0.000000
    23  H   -0.027449  -0.000000   0.000000  -0.000000   0.000001  -0.000000
    24  H   -0.029510  -0.000002   0.000000   0.000001   0.000197   0.000000
    25  H    0.548394   0.000004  -0.000000   0.000006   0.000067   0.000000
    26  H    0.000004   0.587968  -0.043409   0.004450  -0.006685   0.002325
    27  H   -0.000000  -0.043409   0.568985  -0.004474   0.004663  -0.000663
    28  H    0.000006   0.004450  -0.004474   0.544746  -0.033794   0.004412
    29  H    0.000067  -0.006685   0.004663  -0.033794   0.557579  -0.004981
    30  H    0.000000   0.002325  -0.000663   0.004412  -0.004981   0.555296
    31  H    0.000000  -0.000164   0.002671  -0.005636   0.004514  -0.033259
    32  H   -0.000000  -0.000004  -0.000000   0.002486  -0.000501   0.004210
    33  H    0.000000   0.000011  -0.000003  -0.000325   0.002898  -0.004580
    34  H    0.000000   0.000002  -0.000000  -0.000026   0.000010  -0.003119
    35  H   -0.000000   0.000181  -0.001238  -0.000071   0.000003  -0.000000
              31         32         33         34         35
     1  C   -0.000013  -0.000008  -0.000018   0.000013  -0.018678
     2  C    0.000464  -0.000090   0.000082  -0.000095  -0.046050
     3  N   -0.003251  -0.000342  -0.000057  -0.000000   0.066545
     4  C   -0.006183   0.001789  -0.002362   0.000035   0.021279
     5  C    0.000082  -0.000384   0.000614  -0.000043   0.004865
     6  C   -0.000559   0.000373  -0.000111   0.000019   0.007334
     7  C    0.000118  -0.000109   0.000088  -0.000015  -0.000659
     8  C   -0.001807   0.000316  -0.000656  -0.010167  -0.023051
     9  C   -0.074137   0.011543  -0.006857   0.029785   0.004249
    10  C    0.405518  -0.084861  -0.075283  -0.090401  -0.003448
    11  C    0.004341   0.430809   0.443183   0.436579  -0.000172
    12  O    0.000026  -0.000001  -0.000000  -0.000000   0.239070
    13  H   -0.000007   0.000000  -0.000000   0.000000  -0.001183
    14  H    0.000000  -0.000000   0.000000  -0.000000   0.005448
    15  H    0.000000  -0.000000  -0.000000   0.000000  -0.001501
    16  H    0.000001  -0.000000   0.000000  -0.000000   0.001035
    17  H   -0.000008   0.000001  -0.000002  -0.000000  -0.000057
    18  H    0.000000   0.000000   0.000000  -0.000000  -0.000474
    19  H    0.000000  -0.000000  -0.000000  -0.000000  -0.000005
    20  H    0.000000  -0.000000  -0.000001  -0.000000  -0.000001
    21  H    0.000000  -0.000000  -0.000000  -0.000000  -0.000000
    22  H    0.000000  -0.000000   0.000000  -0.000000   0.000000
    23  H    0.000000  -0.000000   0.000000   0.000000  -0.000000
    24  H   -0.000000  -0.000000  -0.000001   0.000000  -0.000000
    25  H    0.000000  -0.000000   0.000000   0.000000  -0.000000
    26  H   -0.000164  -0.000004   0.000011   0.000002   0.000181
    27  H    0.002671  -0.000000  -0.000003  -0.000000  -0.001238
    28  H   -0.005636   0.002486  -0.000325  -0.000026  -0.000071
    29  H    0.004514  -0.000501   0.002898   0.000010   0.000003
    30  H   -0.033259   0.004210  -0.004580  -0.003119  -0.000000
    31  H    0.553549  -0.004597   0.004158  -0.002902   0.000006
    32  H   -0.004597   0.531982  -0.029414  -0.026531  -0.000000
    33  H    0.004158  -0.029414   0.531386  -0.026270   0.000000
    34  H   -0.002902  -0.026531  -0.026270   0.528953  -0.000000
    35  H    0.000006  -0.000000   0.000000  -0.000000   0.349562
          Atomic-Atomic Spin Densities.
               1          2          3          4          5          6
     1  C    9.166843  -7.139370   0.811808  -2.861763   0.203458  -4.397571
     2  C   -7.139370   6.390279  -0.243433   2.366313   2.559279  -2.431210
     3  N    0.811808  -0.243433   0.562564  -0.492020   1.451257  -3.794645
     4  C   -2.861763   2.366313  -0.492020   3.532859   6.001544  -8.979945
     5  C    0.203458   2.559279   1.451257   6.001544  40.582879 -71.814430
     6  C   -4.397571  -2.431210  -3.794645  -8.979945 -71.814430 134.602669
     7  C    0.535300   0.572510   0.665176   2.829282  18.825507 -35.061367
     8  C    3.109023  -1.682581   0.863290  -1.538179   2.820491  -7.802234
     9  C   -0.252385   0.131361  -0.027156   0.454355  -0.435156   1.043617
    10  C    0.775907  -0.475689   0.158277  -0.761609   0.635908  -1.859049
    11  C    0.162470  -0.086844   0.048348  -0.302915   0.334177  -0.784908
    12  O    0.000209   0.012917   0.018687  -0.034247   0.001348  -0.039133
    13  H   -0.033124   0.029869   0.000678   0.006078   0.002950   0.001568
    14  H   -0.005358   0.004375   0.000072   0.000948   0.000297   0.000212
    15  H   -0.022165   0.011781  -0.002605   0.001862   0.001449   0.016285
    16  H   -0.007601   0.001162  -0.000168   0.004304   0.001536   0.003689
    17  H   -0.007359  -0.002117  -0.012625   0.004752  -0.058168   0.120050
    18  H   -0.035574   0.002488  -0.030116  -0.014410  -0.105826   0.266895
    19  H    0.050197   0.042511   0.030640   0.040298   0.374874  -0.750253
    20  H   -0.001891  -0.001768  -0.001696   0.001640  -0.041088   0.074668
    21  H    0.007359   0.023453   0.011560   0.115308   0.511529  -0.932071
    22  H    0.001741   0.009648   0.002591   0.057217   0.332395  -0.567719
    23  H   -0.000009   0.000038   0.000013  -0.000947   0.026405  -0.026177
    24  H    0.000519   0.002713   0.001788   0.023860   0.143935  -0.287424
    25  H    0.001018   0.002735   0.003518   0.034550   0.113044  -0.262763
    26  H    0.012072  -0.005773   0.002406  -0.012144   0.007914  -0.030735
    27  H    0.032451  -0.025575   0.000138  -0.021182  -0.005618  -0.011770
    28  H    0.003822  -0.002418   0.002314  -0.008945   0.002319  -0.008872
    29  H    0.004159   0.000400   0.004704  -0.011172   0.028252  -0.060765
    30  H    0.000523  -0.000192   0.000044  -0.001272   0.000569  -0.001865
    31  H    0.000531  -0.000440  -0.000046  -0.000945  -0.000076  -0.000341
    32  H   -0.000083   0.000051  -0.000029   0.000537  -0.000141   0.000393
    33  H   -0.000002   0.000000   0.000002  -0.000024  -0.000020   0.000058
    34  H   -0.000000  -0.000003  -0.000000   0.000003  -0.000002   0.000003
    35  H   -0.033280   0.027314  -0.004496   0.016244   0.002734   0.006331
               7          8          9         10         11         12
     1  C    0.535300   3.109023  -0.252385   0.775907   0.162470   0.000209
     2  C    0.572510  -1.682581   0.131361  -0.475689  -0.086844   0.012917
     3  N    0.665176   0.863290  -0.027156   0.158277   0.048348   0.018687
     4  C    2.829282  -1.538179   0.454355  -0.761609  -0.302915  -0.034247
     5  C   18.825507   2.820491  -0.435156   0.635908   0.334177   0.001348
     6  C  -35.061367  -7.802234   1.043617  -1.859049  -0.784908  -0.039133
     7  C   10.790288   1.342642  -0.218381   0.343096   0.182167   0.004631
     8  C    1.342642   2.405009  -0.142373   0.600512   0.002687   0.026125
     9  C   -0.218381  -0.142373   0.916068  -0.592425  -0.852293  -0.000078
    10  C    0.343096   0.600512  -0.592425   0.896758   0.242710   0.004168
    11  C    0.182167   0.002687  -0.852293   0.242710   1.043511   0.000929
    12  O    0.004631   0.026125  -0.000078   0.004168   0.000929   0.004601
    13  H   -0.000098  -0.007285   0.000782  -0.001936  -0.000182   0.000447
    14  H   -0.000012  -0.000652   0.000001  -0.000051  -0.000003   0.000102
    15  H   -0.001414  -0.005625   0.000056  -0.000394  -0.000028  -0.000027
    16  H   -0.000371  -0.003235   0.000833  -0.000459  -0.000029   0.000044
    17  H   -0.023838  -0.017510   0.001695  -0.004464  -0.001507  -0.000114
    18  H   -0.045845  -0.037211  -0.001623  -0.003208  -0.000518  -0.000647
    19  H    0.116269   0.076133  -0.000145   0.007145   0.000889   0.000155
    20  H   -0.017858  -0.008213  -0.001184  -0.001920  -0.000718  -0.000003
    21  H    0.248775   0.018018   0.000396   0.001094   0.000174   0.000020
    22  H    0.164762   0.008324   0.000107   0.000808   0.000171   0.000001
    23  H    0.001428   0.000332  -0.000122   0.000017  -0.000000  -0.000000
    24  H    0.106741   0.005477  -0.002369   0.001898   0.001210   0.000000
    25  H    0.098009   0.005507   0.000458   0.001256   0.000759   0.000004
    26  H    0.003910   0.011624  -0.003121   0.009966   0.002859   0.000044
    27  H    0.001248   0.019853  -0.012757   0.017659   0.004391   0.000071
    28  H    0.001687   0.002608  -0.004768   0.006523   0.005293   0.000058
    29  H    0.013615   0.014177  -0.019259   0.014030   0.010846   0.000026
    30  H    0.000326  -0.000795  -0.005486   0.004015   0.004043   0.000001
    31  H    0.000052  -0.000435  -0.003245   0.002004   0.002833   0.000001
    32  H   -0.000098   0.000640   0.003061   0.001188  -0.005565  -0.000000
    33  H   -0.000015   0.000115  -0.000324   0.000512  -0.000292  -0.000000
    34  H   -0.000000  -0.000127   0.000444  -0.000536   0.000214  -0.000000
    35  H   -0.000662  -0.011817   0.000106  -0.002278  -0.000337  -0.000314
              13         14         15         16         17         18
     1  C   -0.033124  -0.005358  -0.022165  -0.007601  -0.007359  -0.035574
     2  C    0.029869   0.004375   0.011781   0.001162  -0.002117   0.002488
     3  N    0.000678   0.000072  -0.002605  -0.000168  -0.012625  -0.030116
     4  C    0.006078   0.000948   0.001862   0.004304   0.004752  -0.014410
     5  C    0.002950   0.000297   0.001449   0.001536  -0.058168  -0.105826
     6  C    0.001568   0.000212   0.016285   0.003689   0.120050   0.266895
     7  C   -0.000098  -0.000012  -0.001414  -0.000371  -0.023838  -0.045845
     8  C   -0.007285  -0.000652  -0.005625  -0.003235  -0.017510  -0.037211
     9  C    0.000782   0.000001   0.000056   0.000833   0.001695  -0.001623
    10  C   -0.001936  -0.000051  -0.000394  -0.000459  -0.004464  -0.003208
    11  C   -0.000182  -0.000003  -0.000028  -0.000029  -0.001507  -0.000518
    12  O    0.000447   0.000102  -0.000027   0.000044  -0.000114  -0.000647
    13  H    0.000250   0.000052   0.000011   0.000041   0.000001   0.000003
    14  H    0.000052  -0.000104   0.000021  -0.000000   0.000000   0.000001
[...]
 -0.00004687,-0.00000585,-0.00003872,-0.00002550,0.00001322,0.00001870,
 0.00002146,-0.00000996,-0.00001582,-0.00001805,0.00067353,0.00091026,0
 .00028708,0.00493878,-0.00553400,-0.01390061,0.07552852,-0.07137959,-0
 .25137411,0.00603630,-0.00526243,-0.01537601,0.00000196,-0.00001733,0.
 00000306,0.00000091,0.00000352,-0.00000296,0.00000049,-0.00000918,-0.0
 0000147,-0.00001456,-0.00003974,0.00000795,-0.00000610,-0.00001597,0.0
 0000188,0.00003311,-0.00001118,0.00005550,-0.00002854,-0.00001559,0.00
 000962,-0.00000938,0.00000411,0.00001126,0.00000101,-0.00000260,-0.000
 00379,0.00000800,0.00000016,0.00000215,-0.00000898,0.00000328,0.000003
 15,0.00000591,0.00000832,0.00000609,-0.00000298,0.00000662,-0.00000367
 ,0.00000092,0.00000036,0.00000678,-0.00015872,-0.00038381,0.00047630,-
 0.00009572,-0.00009974,-0.00000749,-0.00267034,-0.00151450,-0.00087866
 ,0.00004236,0.00047807,0.00034657,-0.08288064,0.07810638,0.27472235,-0
 .00003779,-0.00000830,-0.00000738,-0.00004478,0.00004636,-0.00008423,0
 .00022819,-0.00031077,0.00005241,0.00003736,0.00008449,-0.00020528,0.0
 0003125,-0.00001194,-0.00001327,0.00001942,-0.00000242,0.00001229,-0.0
 0001584,0.00001297,-0.00000037,0.00027741,0.00147479,-0.00051383,-0.02
 011363,0.01365342,-0.00330866,-0.20801467,0.12216119,-0.03140778,0.008
 49393,-0.00779295,0.00230029,0.00003155,-0.00002910,0.00000745,0.00000
 833,0.00000131,0.00000673,0.00001077,-0.00001081,-0.00000086,-0.000007
 10,-0.00003477,0.00001537,0.00000440,0.00000215,0.00002528,-0.00004471
 ,-0.00011799,0.00017024,-0.00002541,-0.00007877,0.00006018,-0.00001994
 ,-0.00000509,0.00002140,0.00001408,-0.00000914,-0.00001424,-0.00001263
 ,-0.00000490,-0.00000246,-0.00001091,-0.00000685,-0.00000120,0.0000108
 4,-0.00000234,-0.00000252,-0.00000012,-0.00001057,-0.00000829,0.000002
 14,0.00000391,0.00000982,0.00000473,-0.00007202,0.00000563,0.00006743,
 -0.00069998,0.00040680,0.00125800,-0.00011093,0.00005386,-0.00286512,-
 0.00320539,-0.00259161,-0.00817595,0.00570976,-0.00169092,0.22730103,0
 .00000749,-0.00000360,-0.00000109,0.00006275,-0.00001787,0.00003645,0.
 00014195,0.00025181,-0.00018744,-0.00016805,-0.00003450,-0.00010688,0.
 00000769,-0.00002771,-0.00000319,0.00000242,-0.00000791,-0.00000469,0.
 00000134,-0.00000687,-0.00000036,-0.00091366,0.00127731,-0.00043926,-0
 .01500796,0.00924176,-0.00255680,0.12217851,-0.13936179,0.02340384,0.0
 2029586,-0.01673318,0.00395218,-0.00000164,0.00001113,0.00000085,0.000
 00017,0.00000531,0.00000130,-0.00000043,0.00000339,0.00000092,0.000011
 70,0.00002525,-0.00000913,-0.00000074,0.00000060,-0.00000662,-0.000003
 94,-0.00007628,0.00008743,-0.00003093,-0.00004637,0.00004490,-0.000002
 18,0.00000360,0.00000324,0.00000433,-0.00000466,-0.00000901,0.00000061
 ,0.00000452,-0.00000311,-0.00000138,0.00000643,-0.00000167,-0.00000684
 ,0.00000275,0.00000172,-0.00000085,0.00000362,0.00000257,0.00000330,-0
 .00000279,-0.00000108,-0.00002584,-0.00002762,0.00002908,0.00029386,-0
 .00011017,-0.00001663,0.00059639,0.00074131,0.00049279,-0.00292202,-0.
 00111638,-0.00122425,0.00728532,-0.00602465,0.00162835,-0.12959489,0.1
 5397483,-0.00001365,-0.00000353,0.00001466,0.00000534,-0.00000858,-0.0
 0002043,0.00019710,0.00002236,0.00000120,-0.00000040,0.00003736,-0.000
 14019,0.00001932,-0.00001491,-0.00001385,0.00001613,-0.00000086,0.0000
 0277,-0.00001049,0.00000550,-0.00000205,0.00062440,0.00063457,-0.00000
 626,-0.01354557,0.00911952,-0.00311713,-0.03010721,0.02256550,-0.05615
 419,-0.01412201,0.01147564,-0.00328449,0.00001472,-0.00000469,-0.00001
 253,-0.00000411,-0.00000041,-0.00000094,0.00000273,-0.00000445,-0.0000
 0222,-0.00000422,-0.00001026,0.00000157,0.00000627,0.00000453,0.000000
 31,-0.00002628,-0.00005264,0.00009284,-0.00001869,-0.00004231,0.000034
 47,-0.00000913,0.00000072,0.00001206,0.00000278,-0.00000608,-0.0000077
 3,-0.00000645,-0.00000315,-0.00000069,-0.00000712,-0.00000423,0.000001
 38,0.00000825,-0.00000090,0.00000026,-0.00000188,-0.00000388,-0.000005
 90,0.00000134,0.00000238,0.00000592,0.00000958,-0.00001854,0.00004620,
 0.00025744,-0.00014934,0.00027439,0.00038416,0.00069230,0.00038886,-0.
 00277792,-0.00148183,-0.00070403,0.02247669,-0.01704688,0.00535891,0.0
 3625739,-0.02773732,0.05748977,0.00000048,0.00000045,0.00000535,0.0000
 0314,0.00000602,-0.00000732,0.00000058,-0.00003427,-0.00002464,0.00000
 180,-0.00001436,0.00000650,-0.00000251,0.00000783,0.00000743,-0.000014
 74,-0.00000993,0.00000452,0.00000893,0.00000209,0.00001471,0.00000785,
 -0.00000215,-0.00004929,0.00018062,0.00054661,0.00049735,-0.00376444,0
 .00286253,0.00769351,-0.08091674,0.02755453,0.08205265,0.00000146,-0.0
 0000259,-0.00000466,-0.00000101,-0.00000007,-0.00000107,0.00000006,-0.
 00000057,-0.00000107,-0.00000095,-0.00000117,0.00000114,0.00000095,0.0
 0000171,0.00000054,-0.00000210,0.00000323,0.00000202,-0.00000269,-0.00
 000108,-0.00000078,0.00000721,0.00000366,-0.00000699,0.00000122,-0.000
 00196,-0.00000132,-0.00000018,0.00000342,-0.00000550,0.00000936,0.0000
 0605,-0.00001139,-0.00001443,-0.00000064,-0.00000523,0.00000427,0.0000
 0097,0.00000543,0.00000312,-0.00000425,-0.00000726,-0.00000006,-0.0000
 0302,-0.00006928,0.00000141,0.00001948,-0.00000569,-0.00010316,-0.0002
 0145,-0.00007781,-0.00002351,0.00003277,-0.00003110,0.00046215,-0.0018
 6205,0.00105823,0.00040473,-0.00022026,-0.00058921,0.08206484,-0.00000
 037,-0.00000040,0.00000216,0.00001717,0.00001484,0.00000184,0.00003630
 ,-0.00000442,-0.00012168,-0.00000257,-0.00000640,-0.00000417,0.0000010
 1,0.00000217,0.00000202,0.00000639,-0.00000027,-0.00000319,-0.00000216
 ,-0.00000388,-0.00000530,0.00011161,0.00006134,0.00018722,0.00046363,0
 .00156373,0.00072239,-0.01033382,0.00780555,0.02478058,0.02803365,-0.0
 7069605,-0.07100779,0.00000516,0.00000009,-0.00000109,-0.00000060,-0.0
 0000021,0.00000051,0.00000013,0.00000005,-0.00000076,0.00000156,0.0000
 0641,-0.00000093,0.00000134,0.00000295,0.00000267,-0.00000089,-0.00000
 156,-0.00000143,-0.00000118,0.00000029,0.00000081,-0.00000030,-0.00000
 015,0.00000187,0.00000045,0.00000078,0.00000092,0.00000095,0.00000094,
 0.00000188,-0.00000329,-0.00000034,0.00000306,0.00000183,0.00000114,0.
 00000192,-0.00000139,0.00000079,-0.00000098,-0.00000055,0.00000188,0.0
 0000134,0.00000757,-0.00008301,-0.00012664,0.00001883,0.00001500,0.000
 02115,0.00020002,-0.00013485,-0.00040939,-0.00004219,-0.00002380,-0.00
 009600,-0.00213576,-0.00380066,0.00328621,0.00041010,0.00126008,-0.000
 65181,-0.02852315,0.07488341,0.00000609,0.00000056,-0.00000932,0.00002
 217,-0.00002270,0.00003657,0.00005678,0.00014356,-0.00003833,-0.000025
 03,0.00002765,-0.00000535,0.00000720,-0.00000766,-0.00000105,0.0000116
 9,0.00000583,-0.00000823,-0.00000230,-0.00000081,-0.00001154,-0.000185
 02,0.00003268,0.00039642,-0.00070102,-0.00064050,0.00075307,0.00605167
 ,-0.00557511,-0.01599419,0.08209766,-0.06983306,-0.25750069,-0.0000124
 3,0.00001510,0.00000664,0.00000105,-0.00000073,0.00000077,-0.00000190,
 0.00000469,0.00000185,0.00000779,0.00001667,-0.00000701,-0.00000105,0.
 00000312,-0.00000880,-0.00000291,-0.00000002,-0.00001562,0.00001527,0.
 00000743,-0.00000074,-0.00000445,-0.00000290,0.00000359,-0.00000214,0.
 00000315,0.00000259,0.00000190,-0.00000179,0.00000602,-0.00000588,-0.0
 0000468,0.00001071,0.00000854,0.00000102,0.00000383,-0.00000326,0.0000
 0068,-0.00000324,-0.00000254,0.00000260,0.00000402,-0.00005740,-0.0001
 1110,0.00005430,-0.00001258,0.00000852,-0.00003049,0.00044309,0.000301
 12,0.00036952,0.00005707,0.00006021,0.00000976,0.00101658,0.00370613,-
 0.00120265,-0.00056776,-0.00013107,0.00046251,-0.09170795,0.07379903,0
 .27921885,0.00000174,0.00000060,-0.00000116,0.00002498,-0.00000531,0.0
 0003696,0.00001319,0.00013011,-0.00006870,-0.00001574,0.00000634,-0.00
 000371,0.00001296,0.00001037,-0.00000823,0.00001963,0.00001594,-0.0000
 0237,-0.00000611,0.00001981,-0.00000419,0.00024027,-0.00020795,0.00029
 037,0.00133828,-0.00033853,0.00016026,0.00780969,-0.00729830,0.0013548
 9,-0.20604413,0.12789580,-0.03039551,-0.00000119,0.00000917,-0.0000003
 9,0.00000011,-0.00000099,0.00000081,-0.00000181,0.00000323,-0.00000006
 ,0.00000564,0.00001561,-0.00000498,-0.00000095,0.00000019,-0.00000631,
 0.00000490,0.00000925,-0.00001272,0.00000629,0.00000670,-0.00000195,-0
 .00000878,-0.00000750,0.00000537,0.00000040,0.00000295,0.00000292,-0.0
 0001520,-0.00001039,0.00000529,-0.00000428,-0.00002061,0.00000673,0.00
 002429,-0.00000836,-0.00000061,-0.00000317,-0.00000633,-0.00000976,-0.
 00000707,0.00000773,0.00000685,0.00000362,0.00001603,-0.00002498,-0.00
 017960,-0.00005490,-0.00000396,-0.00004319,0.00001441,-0.00003530,0.00
 003710,0.00038483,0.00014911,0.00056126,0.00042086,-0.00060272,0.00055
 503,-0.00195419,0.00076631,-0.00781464,0.00520860,-0.00213103,0.219823
 35,0.00000607,0.00000053,0.00000421,0.00000315,0.00001982,-0.00001727,
 -0.00010716,0.00000109,-0.00002727,0.00000488,-0.00004563,0.00001324,-
 0.00001426,-0.00000920,-0.00000685,-0.00001090,-0.00000182,0.00001119,
 0.00000814,-0.00002130,0.00000390,-0.00007776,0.00017155,0.00004302,0.
 00129257,0.00082407,-0.00004454,0.02031714,-0.01655691,0.00331657,0.12
 679332,-0.14929970,0.02348119,-0.00000297,-0.00000733,-0.00000330,-0.0
 0000280,-0.00000069,-0.00000279,-0.00000079,-0.00000316,-0.00000108,-0
 .00000246,-0.00000574,0.00000128,0.00000089,-0.00000119,0.00000567,0.0
 0000609,0.00000008,0.00000437,-0.00001075,0.00000176,-0.00000278,0.000
 00893,0.00000983,-0.00000477,0.00000312,0.00000001,0.00000562,0.000009
 57,0.00000886,-0.00000423,0.00000509,0.00001410,-0.00001094,-0.0000147
 8,0.00000706,0.00000118,-0.00000266,0.00001243,0.00000885,0.00000314,-
 0.00000779,-0.00000959,-0.00001301,-0.00001147,0.00002627,-0.00008797,
 0.00009081,-0.00009299,-0.00005008,-0.00003186,-0.00004574,-0.00059486
 ,-0.00011548,-0.00023399,-0.00025321,0.00121394,-0.00027542,-0.0020790
 5,-0.00381422,0.00331625,0.00644069,-0.00587637,0.00184850,-0.13853004
 ,0.16223640,-0.00000240,0.00000032,-0.00000235,0.00000069,-0.00001155,
 0.00001024,0.00006746,-0.00000843,0.00001186,-0.00000034,0.00001810,0.
 00000890,0.00000488,0.00001029,0.00000878,-0.00000059,-0.00000054,-0.0
 0000198,0.00000219,0.00001087,0.00000909,0.00001033,-0.00015889,-0.000
 02803,-0.00041274,-0.00090764,0.00025670,-0.01477539,0.01186685,-0.003
 27580,-0.02974256,0.02313927,-0.05369447,-0.00000081,0.00000568,-0.000
 00012,0.00000145,-0.00000010,0.00000139,0.00000006,0.00000245,0.000000
 94,0.00000187,0.00000443,-0.00000100,-0.00000045,0.00000161,-0.0000046
 1,-0.00000194,0.00000446,-0.00000957,0.00000884,0.00000236,-0.00000210
 ,-0.00000016,-0.00000142,-0.00000350,-0.00000156,-0.00000174,-0.000001
 03,-0.00000570,-0.00000220,-0.00000150,0.00000549,-0.00000444,-0.00000
 374,0.00000025,-0.00000403,-0.00000433,0.00000055,-0.00000350,-0.00000
 021,-0.00000125,-0.00000100,-0.00000308,0.00000618,0.00000499,-0.00004
 077,0.00001952,-0.00005805,0.00003269,0.00005402,0.00002340,0.00001869
 ,0.00032349,-0.00011350,0.00023652,-0.00054199,-0.00065194,0.00041770,
 0.00130714,0.00351051,-0.00127267,0.02255680,-0.01749024,0.00568546,0.
 03241151,-0.02950976,0.05412993,-0.00001399,0.00000251,0.00000508,-0.0
 0009712,0.00003604,-0.00012199,-0.00011090,-0.00036409,0.00024446,0.00
 007233,-0.00003804,0.00002250,-0.00001002,0.00000856,-0.00001758,-0.00
 000394,-0.00000092,0.00001245,-0.00000396,-0.00000120,-0.00000211,-0.0
 0012218,-0.00008960,-0.00095090,0.00052088,-0.00186769,0.00230135,-0.0
 0628318,-0.00213302,-0.00465496,-0.18889514,-0.09751465,-0.09236922,0.
 00001502,-0.00003166,-0.00000112,0.00000127,0.00000399,-0.00000179,0.0
 0000458,-0.00001156,-0.00000189,-0.00002018,-0.00005228,0.00001780,0.0
 0000103,-0.00000053,0.00002053,0.00000413,0.00000505,0.00001632,-0.000
 02778,-0.00000836,-0.00000432,-0.00000142,-0.00000202,0.00000354,0.000
 00292,-0.00000328,-0.00000474,0.00000017,-0.00000003,-0.00000134,-0.00
 000618,0.00000323,-0.00000187,-0.00000031,0.00000147,0.00000071,0.0000
 0289,-0.00000205,-0.00000185,0.00000209,0.00000129,0.00000416,-0.00003
 924,0.00001634,0.00005659,0.00001353,-0.00004716,0.00002508,-0.0000068
 2,-0.00003887,-0.00021194,0.00036253,0.00012697,0.00018014,-0.00008505
 ,0.00031976,0.00010605,0.00066410,-0.00004393,0.00020681,0.00949930,0.
 00652733,0.00560691,-0.01633981,-0.01304831,-0.01129727,0.20091988,-0.
 00002564,0.00000109,0.00001108,-0.00018398,0.00003937,-0.00022545,-0.0
 0026373,-0.00070045,0.00046886,0.00014186,-0.00008690,0.00005566,-0.00
 002126,0.00001111,-0.00003136,-0.00000752,-0.00000242,0.00002769,-0.00
 000174,-0.00001044,0.00000102,-0.00106960,0.00005210,-0.00152101,-0.00
 057925,-0.00378603,0.00499726,-0.01831439,-0.01209720,-0.01442543,-0.0
 9657585,-0.11456476,-0.06354692,0.00003045,-0.00005708,-0.00000415,0.0
 0000290,0.00000522,-0.00000297,0.00000990,-0.00002059,-0.00000403,-0.0
 0003523,-0.00010247,0.00003597,0.00000261,-0.00000025,0.00003441,0.000
 01146,0.00000752,0.00003139,-0.00004904,-0.00001427,-0.00000680,0.0000
 0182,0.00000126,0.00000328,0.00000606,-0.00000808,-0.00000397,0.000000
 45,0.00000298,-0.00000653,-0.00000741,0.00001113,-0.00000967,-0.000009
 12,0.00000522,-0.00000097,0.00000176,0.00000300,0.00000365,0.00000341,
 -0.00000308,-0.00000105,-0.00007989,-0.00003452,0.00014237,0.00008963,
 -0.00001388,-0.00004177,0.00030621,0.00015128,0.00008215,-0.00012028,0
 .00020732,-0.00003643,0.00028890,0.00109253,0.00003224,0.00060505,0.00
 061192,-0.00063378,-0.00660930,-0.00498903,-0.00364209,0.01427395,0.01
 119003,0.01032999,0.10821344,0.12303927,0.00001090,-0.00000265,-0.0000
 0697,0.00009926,-0.00000272,0.00009566,0.00014046,0.00039320,-0.000243
 09,-0.00006849,0.00004704,-0.00003363,0.00001150,-0.00000521,0.0000128
 8,0.00000348,0.00000270,-0.00001151,-0.00000155,0.00000334,-0.00000500
 ,0.00045882,0.00032077,0.00087929,0.00056460,0.00268805,-0.00191239,0.
 01522426,0.00981821,0.00939401,-0.09361203,-0.06501297,-0.10904681,-0.
 00001369,0.00002394,0.00000426,-0.00000168,-0.00000123,0.00000150,-0.0
 0000483,0.00000804,0.00000215,0.00001774,0.00004928,-0.00002067,-0.000
 00075,0.00000149,-0.00001635,-0.00000753,-0.00000590,-0.00001220,0.000
 01979,0.00000509,0.00000298,-0.00000264,-0.00000151,0.00000056,-0.0000
 0272,0.00000322,0.00000074,0.00000059,-0.00000199,0.00000401,0.0000018
 3,-0.00000605,0.00000611,0.00000827,-0.00000230,0.00000248,-0.00000093
 ,-0.00000290,-0.00000343,-0.00000119,0.00000252,0.00000345,0.00002255,
 -0.00005438,-0.00001598,-0.00003892,0.00000779,0.00001917,0.00000143,0
 .00018153,0.00019724,-0.00003595,-0.00008682,-0.00015400,-0.00012184,-
 0.00074411,0.00082131,-0.00030463,-0.00075236,0.00055134,-0.02130393,-
 0.01289634,-0.01217706,-0.00187387,-0.00180516,-0.00247464,0.10079505,
 0.06785182,0.11415257,0.00294272,-0.00982575,0.00548648,-0.00130771,-0
 .00069920,0.00535821,-0.00223471,-0.00429865,-0.00253906,-0.00203822,0
 .00090076,-0.00104336,0.00055978,-0.00016199,0.00033567,0.00007111,-0.
 00004636,-0.00027979,0.00000211,0.00006526,-0.00000211,0.00268329,0.00
 041753,-0.00012079,-0.00017457,-0.00003551,-0.00049327,0.00004436,-0.0
 0012334,0.00017040,-0.00006882,-0.00002174,-0.00006923,-0.02372387,0.0
 8009106,-0.02777384,0.00008584,0.00051335,-0.00053572,-0.00144191,-0.0
 0000904,0.00434653,-0.00030406,0.00011293,-0.00008043,0.00025527,-0.00
 025111,-0.00095720,0.00016121,-0.00025744,0.00010613,0.00013215,0.0000
 4906,0.00011771,-0.00003680,-0.00000820,-0.00001011,-0.00004436,-0.000
 02735,-0.00004126,-0.00001375,-0.00000934,0.00003971,0.00009799,-0.000
 08831,0.00007165,0.00007540,-0.00004055,0.00001258,-0.00001529,-0.0000
 2390,-0.00002330,-0.00001522,0.00001522,0.00000404,-0.00038867,-0.0008
 6422,-0.00091766,-0.00027818,-0.00009366,-0.00024406,-0.00000186,0.000
 02651,0.00008519,0.00001571,0.00000592,0.00003042,-0.00000787,0.000000
 90,0.00000312,-0.00003610,0.00000604,-0.00001242,-0.00000231,-0.000005
 40,0.00001521,0.00000297,0.00000101,0.00000243,-0.00001943,-0.00003664
 ,0.00001667,0.02502382,-0.00294713,0.00384913,0.00552990,0.00384579,0.
 00052555,-0.00660994,-0.00348373,0.00471252,0.00144859,0.00188933,-0.0
 0060993,0.00379390,-0.00113832,0.00057669,-0.00099521,-0.00018826,0.00
 013887,0.00064633,-0.00002939,-0.00005453,0.00004127,-0.00266755,-0.00
 264273,-0.00192733,0.00027617,0.00004718,0.00050947,-0.00009255,0.0001
 7696,-0.00023290,0.00009367,0.00002954,0.00010175,0.06874569,-0.401533
 46,0.16770375,-0.00024956,-0.00072163,-0.00247809,0.00171013,0.0006462
 3,-0.00094725,-0.00039925,-0.00019484,0.00027477,-0.00000140,-0.001354
 25,0.00133635,-0.00013123,0.00020696,-0.00015803,-0.00042042,-0.000072
 97,-0.00023836,0.00001929,-0.00006903,0.00007631,0.00007078,0.00003146
 ,0.00006199,-0.00002871,-0.00002736,-0.00007159,-0.00016722,0.00008897
 ,-0.00015855,-0.00005738,0.00003971,-0.00004518,0.00002106,0.00001410,
 0.00001129,0.00001461,-0.00000050,0.00000073,0.00027836,0.00098162,0.0
 0125528,0.00032701,0.00008539,0.00013729,-0.00004267,0.00001161,0.0000
 4311,-0.00003921,0.00004535,-0.00003138,0.00001205,0.00001833,0.000030
 42,0.00003345,-0.00000905,0.00000376,0.00000023,-0.00000004,-0.0000140
 5,-0.00000907,0.00000746,-0.00000658,0.00003326,0.00005909,-0.00002345
 ,-0.06527782,0.39499760,-0.00193855,0.03958546,-0.03189370,0.00279157,
 0.00263753,-0.00244883,-0.00330139,0.00259015,0.00033410,0.00094764,-0
 .00008312,0.00212005,-0.00076858,0.00032732,-0.00056255,-0.00011694,0.
 00009364,0.00034326,-0.00002922,-0.00002288,0.00003403,-0.00103702,-0.
 00162060,-0.00163655,0.00005532,0.00011757,0.00043778,-0.00003241,0.00
 011383,-0.00016335,0.00005636,0.00002223,0.00006699,-0.01528604,0.1255
 9143,-0.10008834,0.00004224,0.00035417,-0.00066506,0.00040608,-0.00168
 174,-0.00555710,0.00005616,-0.00025269,-0.00003238,-0.00065111,0.00077
 566,0.00042580,-0.00009388,0.00022731,-0.00011894,-0.00020481,-0.00008
 317,-0.00007336,0.00005552,-0.00001245,-0.00001982,0.00004414,0.000014
 01,0.00002971,-0.00001656,-0.00001245,-0.00004212,-0.00009163,0.000065
 32,-0.00008573,-0.00004249,0.00002564,-0.00003326,0.00001769,0.0000137
 1,0.00001505,0.00001383,-0.00000388,-0.00000955,0.00011393,0.00042663,
 0.00047427,0.00003099,-0.00020380,-0.00012705,0.00001393,-0.00004046,-
 0.00004009,-0.00001225,0.00006030,-0.00004804,0.00000323,0.00000501,0.
 00000629,0.00001303,-0.00000419,0.00000587,0.00000532,0.00000017,-0.00
 001217,-0.00000486,0.00000717,-0.00000340,0.00001934,0.00003555,-0.000
 01799,0.01894144,-0.16906837,0.13938616\\0.00001769,0.00002438,-0.0000
 4625,0.00004455,0.00002610,-0.00001592,-0.00004087,-0.00000629,-0.0000
 0205,0.00000567,-0.00001724,-0.00001011,-0.00010480,-0.00006879,0.0000
 7333,-0.00004668,-0.00001740,0.00000350,-0.00004954,0.00000720,-0.0000
 1758,0.00003397,-0.00002264,-0.00001656,0.00004629,0.00002554,0.000017
 50,-0.00001136,-0.00000646,-0.00000116,-0.00000235,0.00000071,0.000001
 20,-0.00001436,-0.00004397,-0.00000565,0.00000925,0.00002246,0.0000041
 7,0.00001257,-0.00003950,-0.00002124,-0.00000806,0.00000309,0.00000098
 ,-0.00000789,0.00000192,0.00001115,-0.00003507,-0.00005168,0.00000862,
 -0.00001762,-0.00000873,-0.00002933,0.00004321,0.00003814,-0.00001596,
 -0.00002234,0.00001895,0.00000704,0.00003723,-0.00002955,-0.00001476,0
 .00005865,0.00000274,-0.00001516,0.00002858,0.00005963,-0.00002590,-0.
 00000480,0.00001922,-0.00000177,-0.00001642,0.00000586,0.00001010,0.00
 001418,0.00000129,0.00000751,0.00000187,0.00001592,0.00001109,0.000002
 69,-0.00000601,-0.00001951,0.00000558,0.00002279,0.00000652,-0.0000034
 9,0.00000699,0.00001978,0.00001158,-0.00000805,0.00001059,0.00000667,0
 .00000036,-0.00000978,-0.00000922,0.00001362,-0.00000314,0.00000184,0.
 00001367,0.00000962,0.00001279,-0.00000428,0.00006913\\\@
 The archive entry for this job was punched.


 THERE'S NOTHING SO GREAT AS THE GREAT OUTDOORS.

                                       -- ZIGGY
 Job cpu time:       0 days  3 hours 26 minutes 48.3 seconds.
 Elapsed time:       0 days  0 hours 11 minutes 17.8 seconds.
 File lengths (MBytes):  RWF=    873 Int=      0 D2E=      0 Chk=     25 Scr=      1
 Normal termination of Gaussian 16 at Mon Nov  7 21:59:00 2022.
