 Entering Gaussian System, Link 0=g16
 Input=DBAE-conformers-13.gau
 Output=DBAE-conformers-13.log
 Initial command:
 /apps/gaussian/g16c01/g16/l1.exe "/jobfs/62954163.gadi-pbs/Gau-245897.inp" -scrdir="/jobfs/62954163.gadi-pbs/"
 Default is to use a total of  20 processors:
                               20 via shared-memory
                                1 via Linda
 Entering Link 1 = /apps/gaussian/g16c01/g16/l1.exe PID=    245898.
  
 Copyright (c) 1988-2019, Gaussian, Inc.  All Rights Reserved.
  
 This is part of the Gaussian(R) 16 program.  It is based on
 the Gaussian(R) 09 system (copyright 2009, Gaussian, Inc.),
 the Gaussian(R) 03 system (copyright 2003, Gaussian, Inc.),
 the Gaussian(R) 98 system (copyright 1998, Gaussian, Inc.),
 the Gaussian(R) 94 system (copyright 1995, Gaussian, Inc.),
 the Gaussian 92(TM) system (copyright 1992, Gaussian, Inc.),
 the Gaussian 90(TM) system (copyright 1990, Gaussian, Inc.),
 the Gaussian 88(TM) system (copyright 1988, Gaussian, Inc.),
 the Gaussian 86(TM) system (copyright 1986, Carnegie Mellon
 University), and the Gaussian 82(TM) system (copyright 1983,
 Carnegie Mellon University). Gaussian is a federally registered
 trademark of Gaussian, Inc.
  
 This software contains proprietary and confidential information,
 including trade secrets, belonging to Gaussian, Inc.
  
 This software is provided under written license and may be
 used, copied, transmitted, or stored only in accord with that
 written license.
  
 The following legend is applicable only to US Government
 contracts under FAR:
  
                    RESTRICTED RIGHTS LEGEND
  
 Use, reproduction and disclosure by the US Government is
 subject to restrictions as set forth in subparagraphs (a)
 and (c) of the Commercial Computer Software - Restricted
 Rights clause in FAR 52.227-19.
  
 Gaussian, Inc.
 340 Quinnipiac St., Bldg. 40, Wallingford CT 06492
  
  
 ---------------------------------------------------------------
 Warning -- This program may not be used in any manner that
 competes with the business of Gaussian, Inc. or will provide
 assistance to any competitor of Gaussian, Inc.  The licensee
 of this program is prohibited from giving any competitor of
 Gaussian, Inc. access to this program.  By using this program,
 the user acknowledges that Gaussian, Inc. is engaged in the
 business of creating and licensing software in the field of
 computational chemistry and represents and warrants to the
 licensee that it is not a competitor of Gaussian, Inc. and that
 it will not use this program in any manner prohibited above.
 ---------------------------------------------------------------
  

 Cite this work as:
 Gaussian 16, Revision C.01,
 M. J. Frisch, G. W. Trucks, H. B. Schlegel, G. E. Scuseria, 
 M. A. Robb, J. R. Cheeseman, G. Scalmani, V. Barone, 
 G. A. Petersson, H. Nakatsuji, X. Li, M. Caricato, A. V. Marenich, 
 J. Bloino, B. G. Janesko, R. Gomperts, B. Mennucci, H. P. Hratchian, 
 J. V. Ortiz, A. F. Izmaylov, J. L. Sonnenberg, D. Williams-Young, 
 F. Ding, F. Lipparini, F. Egidi, J. Goings, B. Peng, A. Petrone, 
 T. Henderson, D. Ranasinghe, V. G. Zakrzewski, J. Gao, N. Rega, 
 G. Zheng, W. Liang, M. Hada, M. Ehara, K. Toyota, R. Fukuda, 
 J. Hasegawa, M. Ishida, T. Nakajima, Y. Honda, O. Kitao, H. Nakai, 
 T. Vreven, K. Throssell, J. A. Montgomery, Jr., J. E. Peralta, 
 F. Ogliaro, M. J. Bearpark, J. J. Heyd, E. N. Brothers, K. N. Kudin, 
 V. N. Staroverov, T. A. Keith, R. Kobayashi, J. Normand, 
 K. Raghavachari, A. P. Rendell, J. C. Burant, S. S. Iyengar, 
 J. Tomasi, M. Cossi, J. M. Millam, M. Klene, C. Adamo, R. Cammi, 
 J. W. Ochterski, R. L. Martin, K. Morokuma, O. Farkas, 
 J. B. Foresman, and D. J. Fox, Gaussian, Inc., Wallingford CT, 2019.
 
 ******************************************
 Gaussian 16:  ES64L-G16RevC.01  3-Jul-2019
                 7-Nov-2022 
 ******************************************
 %chk=DBAE-conformers-13.chk
 Default route: Maxdisk=0MB
 ----------------------------------------------------------------------
 # opt(maxcycles=1000) freq=Noraman scf(maxcycle=500) uwb97xd/6-31+G(d,
 p) scrf=(smd,solvent=acetonitrile)
 ----------------------------------------------------------------------
 1/6=1000,18=20,19=15,26=3,38=1/1,3;
 2/9=110,12=2,17=6,18=5,40=1/2;
 3/5=1,6=6,7=111,11=2,25=1,30=1,70=32201,71=1,72=2,74=-58,116=2/1,2,3;
 4//1;
 5/5=2,7=500,38=5,53=2/2;
 6/7=2,8=2,9=2,10=2,28=1/1;
 7//1,2,3,16;
 1/6=1000,18=20,19=15,26=3/3(2);
 2/9=110/2;
 99//99;
 2/9=110/2;
 3/5=1,6=6,7=111,11=2,25=1,30=1,70=32205,71=1,72=2,74=-58,116=2/1,2,3;
 4/5=5,16=3,69=1/1;
 5/5=2,7=500,38=5,53=2/2;
 7//1,2,3,16;
 1/6=1000,18=20,19=15,26=3/3(-5);
 2/9=110/2;
 6/7=2,8=2,9=2,10=2,19=2,28=1/1;
 99/9=1/99;
 ----------
 OPT + Freq
 ----------
 Symbolic Z-matrix:
 Charge = -1 Multiplicity = 2
 C                    -0.65265   3.03056  -0.72481 
 C                     0.38935   1.91089  -0.80789 
 N                    -0.03878   0.77836   0.01993 
 C                     1.09053   0.02651   0.5848 
 C                     1.93906  -0.76443  -0.42071 
 C                     3.11981  -1.49025   0.23973 
 C                     4.1794   -0.54679   0.82243 
 C                    -1.03493  -0.04828  -0.67264 
 C                    -1.65143  -1.13146   0.21152 
 C                    -2.84217  -1.81275  -0.4704 
 C                    -3.45737  -2.91902   0.39118 
 O                    -1.01729   3.24045   0.63952 
 H                    -1.54548   2.78346  -1.31636 
 H                    -0.23413   3.96369  -1.11579 
 H                     1.33687   2.28462  -0.4038 
 H                     0.55866   1.63299  -1.86124 
 H                     0.70313  -0.65882   1.34805 
 H                     1.71661   0.75451   1.11187 
 H                     2.31956  -0.0858   -1.19696 
 H                     1.30743  -1.50445  -0.92803 
 H                     3.59322  -2.14074  -0.50692 
 H                     2.74044  -2.15278   1.03076 
 H                     5.04204  -1.11023   1.19611 
 H                     3.7855    0.04471   1.65614 
 H                     4.53907   0.15213   0.05668 
 H                    -0.60902  -0.51006  -1.58114 
 H                    -1.83645   0.61916  -1.01092 
 H                    -1.97594  -0.67865   1.15881 
 H                    -0.90213  -1.89395   0.46101 
 H                    -2.51778  -2.23307  -1.43248 
 H                    -3.60646  -1.05785  -0.7007 
 H                    -4.30521  -3.394    -0.11552 
 H                    -3.81689  -2.51495   1.34556 
 H                    -2.7182   -3.69827   0.61385 
 H                    -0.94214   2.34977   1.03243 
 

 GradGradGradGradGradGradGradGradGradGradGradGradGradGradGradGradGradGrad
 Berny optimization.
 Initialization pass.
                           ----------------------------
                           !    Initial Parameters    !
                           ! (Angstroms and Degrees)  !
 --------------------------                            --------------------------
 ! Name  Definition              Value          Derivative Info.                !
 --------------------------------------------------------------------------------
 ! R1    R(1,2)                  1.5318         estimate D2E/DX2                !
 ! R2    R(1,12)                 1.4277         estimate D2E/DX2                !
 ! R3    R(1,13)                 1.0992         estimate D2E/DX2                !
 ! R4    R(1,14)                 1.0949         estimate D2E/DX2                !
 ! R5    R(2,3)                  1.4667         estimate D2E/DX2                !
 ! R6    R(2,15)                 1.0958         estimate D2E/DX2                !
 ! R7    R(2,16)                 1.1025         estimate D2E/DX2                !
 ! R8    R(3,4)                  1.4696         estimate D2E/DX2                !
 ! R9    R(3,8)                  1.4681         estimate D2E/DX2                !
 ! R10   R(4,5)                  1.5351         estimate D2E/DX2                !
 ! R11   R(4,17)                 1.0965         estimate D2E/DX2                !
 ! R12   R(4,18)                 1.0953         estimate D2E/DX2                !
 ! R13   R(5,6)                  1.5353         estimate D2E/DX2                !
 ! R14   R(5,19)                 1.099          estimate D2E/DX2                !
 ! R15   R(5,20)                 1.0972         estimate D2E/DX2                !
 ! R16   R(6,7)                  1.5337         estimate D2E/DX2                !
 ! R17   R(6,21)                 1.0976         estimate D2E/DX2                !
 ! R18   R(6,22)                 1.0994         estimate D2E/DX2                !
 ! R19   R(7,23)                 1.096          estimate D2E/DX2                !
 ! R20   R(7,24)                 1.0955         estimate D2E/DX2                !
 ! R21   R(7,25)                 1.0974         estimate D2E/DX2                !
 ! R22   R(8,9)                  1.5281         estimate D2E/DX2                !
 ! R23   R(8,26)                 1.1045         estimate D2E/DX2                !
 ! R24   R(8,27)                 1.0965         estimate D2E/DX2                !
 ! R25   R(9,10)                 1.532          estimate D2E/DX2                !
 ! R26   R(9,28)                 1.0989         estimate D2E/DX2                !
 ! R27   R(9,29)                 1.0978         estimate D2E/DX2                !
 ! R28   R(10,11)                1.5312         estimate D2E/DX2                !
 ! R29   R(10,30)                1.0989         estimate D2E/DX2                !
 ! R30   R(10,31)                1.0987         estimate D2E/DX2                !
 ! R31   R(11,32)                1.096          estimate D2E/DX2                !
 ! R32   R(11,33)                1.097          estimate D2E/DX2                !
 ! R33   R(11,34)                1.0969         estimate D2E/DX2                !
 ! R34   R(12,35)                0.9764         estimate D2E/DX2                !
 ! A1    A(2,1,12)             109.4528         estimate D2E/DX2                !
 ! A2    A(2,1,13)             111.0417         estimate D2E/DX2                !
 ! A3    A(2,1,14)             110.0952         estimate D2E/DX2                !
 ! A4    A(12,1,13)            109.8699         estimate D2E/DX2                !
 ! A5    A(12,1,14)            108.2748         estimate D2E/DX2                !
 ! A6    A(13,1,14)            108.0534         estimate D2E/DX2                !
 ! A7    A(1,2,3)              109.5871         estimate D2E/DX2                !
 ! A8    A(1,2,15)             108.5967         estimate D2E/DX2                !
 ! A9    A(1,2,16)             109.91           estimate D2E/DX2                !
 ! A10   A(3,2,15)             107.9154         estimate D2E/DX2                !
 ! A11   A(3,2,16)             112.9212         estimate D2E/DX2                !
 ! A12   A(15,2,16)            107.7894         estimate D2E/DX2                !
 ! A13   A(2,3,4)              112.8101         estimate D2E/DX2                !
 ! A14   A(2,3,8)              111.5048         estimate D2E/DX2                !
 ! A15   A(4,3,8)              114.4988         estimate D2E/DX2                !
 ! A16   A(3,4,5)              115.886          estimate D2E/DX2                !
 ! A17   A(3,4,17)             108.41           estimate D2E/DX2                !
 ! A18   A(3,4,18)             106.5087         estimate D2E/DX2                !
 ! A19   A(5,4,17)             109.2196         estimate D2E/DX2                !
 ! A20   A(5,4,18)             109.9794         estimate D2E/DX2                !
 ! A21   A(17,4,18)            106.4041         estimate D2E/DX2                !
 ! A22   A(4,5,6)              112.7622         estimate D2E/DX2                !
 ! A23   A(4,5,19)             109.624          estimate D2E/DX2                !
 ! A24   A(4,5,20)             109.3994         estimate D2E/DX2                !
 ! A25   A(6,5,19)             109.237          estimate D2E/DX2                !
 ! A26   A(6,5,20)             108.8301         estimate D2E/DX2                !
 ! A27   A(19,5,20)            106.8089         estimate D2E/DX2                !
 ! A28   A(5,6,7)              113.8245         estimate D2E/DX2                !
 ! A29   A(5,6,21)             108.6185         estimate D2E/DX2                !
 ! A30   A(5,6,22)             109.2102         estimate D2E/DX2                !
 ! A31   A(7,6,21)             108.9665         estimate D2E/DX2                !
 ! A32   A(7,6,22)             109.6179         estimate D2E/DX2                !
 ! A33   A(21,6,22)            106.3282         estimate D2E/DX2                !
 ! A34   A(6,7,23)             110.9196         estimate D2E/DX2                !
 ! A35   A(6,7,24)             111.8922         estimate D2E/DX2                !
 ! A36   A(6,7,25)             110.677          estimate D2E/DX2                !
 ! A37   A(23,7,24)            107.5236         estimate D2E/DX2                !
 ! A38   A(23,7,25)            107.9006         estimate D2E/DX2                !
 ! A39   A(24,7,25)            107.7589         estimate D2E/DX2                !
 ! A40   A(3,8,9)              113.5731         estimate D2E/DX2                !
 ! A41   A(3,8,26)             111.2097         estimate D2E/DX2                !
 ! A42   A(3,8,27)             107.3849         estimate D2E/DX2                !
 ! A43   A(9,8,26)             109.58           estimate D2E/DX2                !
 ! A44   A(9,8,27)             108.3648         estimate D2E/DX2                !
 ! A45   A(26,8,27)            106.415          estimate D2E/DX2                !
 ! A46   A(8,9,10)             111.7925         estimate D2E/DX2                !
 ! A47   A(8,9,28)             109.0149         estimate D2E/DX2                !
 ! A48   A(8,9,29)             110.3937         estimate D2E/DX2                !
 ! A49   A(10,9,28)            109.7195         estimate D2E/DX2                !
 ! A50   A(10,9,29)            108.8326         estimate D2E/DX2                !
 ! A51   A(28,9,29)            106.9682         estimate D2E/DX2                !
 ! A52   A(9,10,11)            112.5259         estimate D2E/DX2                !
 ! A53   A(9,10,30)            109.291          estimate D2E/DX2                !
 ! A54   A(9,10,31)            109.1739         estimate D2E/DX2                !
 ! A55   A(11,10,30)           109.5659         estimate D2E/DX2                !
 ! A56   A(11,10,31)           109.565          estimate D2E/DX2                !
 ! A57   A(30,10,31)           106.5389         estimate D2E/DX2                !
 ! A58   A(10,11,32)           111.3318         estimate D2E/DX2                !
 ! A59   A(10,11,33)           110.7986         estimate D2E/DX2                !
 ! A60   A(10,11,34)           110.9            estimate D2E/DX2                !
 ! A61   A(32,11,33)           107.9583         estimate D2E/DX2                !
 ! A62   A(32,11,34)           107.895          estimate D2E/DX2                !
 ! A63   A(33,11,34)           107.814          estimate D2E/DX2                !
 ! A64   A(1,12,35)            103.343          estimate D2E/DX2                !
 ! D1    D(12,1,2,3)            46.4528         estimate D2E/DX2                !
 ! D2    D(12,1,2,15)          -71.207          estimate D2E/DX2                !
 ! D3    D(12,1,2,16)          171.1015         estimate D2E/DX2                !
 ! D4    D(13,1,2,3)           -75.0195         estimate D2E/DX2                !
 ! D5    D(13,1,2,15)          167.3206         estimate D2E/DX2                !
 ! D6    D(13,1,2,16)           49.6292         estimate D2E/DX2                !
 ! D7    D(14,1,2,3)           165.3561         estimate D2E/DX2                !
 ! D8    D(14,1,2,15)           47.6962         estimate D2E/DX2                !
 ! D9    D(14,1,2,16)          -69.9952         estimate D2E/DX2                !
 ! D10   D(2,1,12,35)          -32.4528         estimate D2E/DX2                !
 ! D11   D(13,1,12,35)          89.7238         estimate D2E/DX2                !
 ! D12   D(14,1,12,35)        -152.4774         estimate D2E/DX2                !
 ! D13   D(1,2,3,4)           -149.191          estimate D2E/DX2                !
 ! D14   D(1,2,3,8)             80.326          estimate D2E/DX2                !
 ! D15   D(15,2,3,4)           -31.1062         estimate D2E/DX2                !
 ! D16   D(15,2,3,8)          -161.5892         estimate D2E/DX2                !
 ! D17   D(16,2,3,4)            87.9271         estimate D2E/DX2                !
 ! D18   D(16,2,3,8)           -42.5559         estimate D2E/DX2                !
 ! D19   D(2,3,4,5)            -68.6106         estimate D2E/DX2                !
 ! D20   D(2,3,4,17)           168.2168         estimate D2E/DX2                !
 ! D21   D(2,3,4,18)            54.0691         estimate D2E/DX2                !
 ! D22   D(8,3,4,5)             60.3422         estimate D2E/DX2                !
 ! D23   D(8,3,4,17)           -62.8304         estimate D2E/DX2                !
 ! D24   D(8,3,4,18)          -176.9781         estimate D2E/DX2                !
 ! D25   D(2,3,8,9)           -172.3073         estimate D2E/DX2                !
 ! D26   D(2,3,8,26)            63.5312         estimate D2E/DX2                !
 ! D27   D(2,3,8,27)           -52.5176         estimate D2E/DX2                !
 ! D28   D(4,3,8,9)             58.09           estimate D2E/DX2                !
 ! D29   D(4,3,8,26)           -66.0715         estimate D2E/DX2                !
 ! D30   D(4,3,8,27)           177.8797         estimate D2E/DX2                !
 ! D31   D(3,4,5,6)            178.414          estimate D2E/DX2                !
 ! D32   D(3,4,5,19)            56.48           estimate D2E/DX2                !
 ! D33   D(3,4,5,20)           -60.3312         estimate D2E/DX2                !
 ! D34   D(17,4,5,6)           -58.8388         estimate D2E/DX2                !
 ! D35   D(17,4,5,19)          179.2271         estimate D2E/DX2                !
 ! D36   D(17,4,5,20)           62.416          estimate D2E/DX2                !
 ! D37   D(18,4,5,6)            57.5831         estimate D2E/DX2                !
 ! D38   D(18,4,5,19)          -64.3509         estimate D2E/DX2                !
 ! D39   D(18,4,5,20)          178.838          estimate D2E/DX2                !
 ! D40   D(4,5,6,7)            -66.2151         estimate D2E/DX2                !
 ! D41   D(4,5,6,21)           172.2059         estimate D2E/DX2                !
 ! D42   D(4,5,6,22)            56.6402         estimate D2E/DX2                !
 ! D43   D(19,5,6,7)            55.9371         estimate D2E/DX2                !
 ! D44   D(19,5,6,21)          -65.6419         estimate D2E/DX2                !
 ! D45   D(19,5,6,22)          178.7924         estimate D2E/DX2                !
 ! D46   D(20,5,6,7)           172.207          estimate D2E/DX2                !
 ! D47   D(20,5,6,21)           50.628          estimate D2E/DX2                !
 ! D48   D(20,5,6,22)          -64.9376         estimate D2E/DX2                !
 ! D49   D(5,6,7,23)          -174.6583         estimate D2E/DX2                !
 ! D50   D(5,6,7,24)            65.2752         estimate D2E/DX2                !
 ! D51   D(5,6,7,25)           -54.9239         estimate D2E/DX2                !
 ! D52   D(21,6,7,23)          -53.2727         estimate D2E/DX2                !
 ! D53   D(21,6,7,24)         -173.3392         estimate D2E/DX2                !
 ! D54   D(21,6,7,25)           66.4617         estimate D2E/DX2                !
 ! D55   D(22,6,7,23)           62.7099         estimate D2E/DX2                !
 ! D56   D(22,6,7,24)          -57.3566         estimate D2E/DX2                !
 ! D57   D(22,6,7,25)         -177.5558         estimate D2E/DX2                !
 ! D58   D(3,8,9,10)           170.4686         estimate D2E/DX2                !
 ! D59   D(3,8,9,28)            48.9924         estimate D2E/DX2                !
 ! D60   D(3,8,9,29)           -68.2301         estimate D2E/DX2                !
 ! D61   D(26,8,9,10)          -64.4916         estimate D2E/DX2                !
 ! D62   D(26,8,9,28)          174.0322         estimate D2E/DX2                !
 ! D63   D(26,8,9,29)           56.8098         estimate D2E/DX2                !
 ! D64   D(27,8,9,10)           51.2373         estimate D2E/DX2                !
 ! D65   D(27,8,9,28)          -70.2389         estimate D2E/DX2                !
 ! D66   D(27,8,9,29)          172.5386         estimate D2E/DX2                !
 ! D67   D(8,9,10,11)          178.9675         estimate D2E/DX2                !
 ! D68   D(8,9,10,30)           57.0102         estimate D2E/DX2                !
 ! D69   D(8,9,10,31)          -59.1592         estimate D2E/DX2                !
 ! D70   D(28,9,10,11)         -59.9641         estimate D2E/DX2                !
 ! D71   D(28,9,10,30)         178.0786         estimate D2E/DX2                !
 ! D72   D(28,9,10,31)          61.9092         estimate D2E/DX2                !
 ! D73   D(29,9,10,11)          56.7672         estimate D2E/DX2                !
 ! D74   D(29,9,10,30)         -65.1901         estimate D2E/DX2                !
 ! D75   D(29,9,10,31)         178.6406         estimate D2E/DX2                !
 ! D76   D(9,10,11,32)        -179.8869         estimate D2E/DX2                !
 ! D77   D(9,10,11,33)          59.9535         estimate D2E/DX2                !
 ! D78   D(9,10,11,34)         -59.7391         estimate D2E/DX2                !
 ! D79   D(30,10,11,32)        -58.0855         estimate D2E/DX2                !
 ! D80   D(30,10,11,33)       -178.2451         estimate D2E/DX2                !
 ! D81   D(30,10,11,34)         62.0623         estimate D2E/DX2                !
 ! D82   D(31,10,11,32)         58.4619         estimate D2E/DX2                !
 ! D83   D(31,10,11,33)        -61.6978         estimate D2E/DX2                !
 ! D84   D(31,10,11,34)        178.6096         estimate D2E/DX2                !
 --------------------------------------------------------------------------------
 Trust Radius=3.00D-01 FncErr=1.00D-07 GrdErr=1.00D-06 EigMax=2.50D+02 EigMin=1.00D-04
 Number of steps in this run=    210 maximum allowed number of steps=    210.
 GradGradGradGradGradGradGradGradGradGradGradGradGradGradGradGradGradGrad

                          Input orientation:                          
 ---------------------------------------------------------------------
 Center     Atomic      Atomic             Coordinates (Angstroms)
 Number     Number       Type             X           Y           Z
 ---------------------------------------------------------------------
      1          6           0       -0.652649    3.030556   -0.724808
      2          6           0        0.389350    1.910886   -0.807893
      3          7           0       -0.038776    0.778365    0.019934
      4          6           0        1.090531    0.026511    0.584803
      5          6           0        1.939057   -0.764432   -0.420707
      6          6           0        3.119807   -1.490246    0.239729
      7          6           0        4.179399   -0.546793    0.822426
      8          6           0       -1.034932   -0.048278   -0.672641
      9          6           0       -1.651432   -1.131460    0.211524
     10          6           0       -2.842170   -1.812747   -0.470403
     11          6           0       -3.457370   -2.919022    0.391184
     12          8           0       -1.017290    3.240449    0.639522
     13          1           0       -1.545476    2.783460   -1.316364
     14          1           0       -0.234131    3.963691   -1.115790
     15          1           0        1.336867    2.284615   -0.403797
     16          1           0        0.558658    1.632993   -1.861243
     17          1           0        0.703126   -0.658821    1.348049
     18          1           0        1.716607    0.754507    1.111869
     19          1           0        2.319562   -0.085797   -1.196957
     20          1           0        1.307435   -1.504448   -0.928030
     21          1           0        3.593224   -2.140738   -0.506916
     22          1           0        2.740439   -2.152782    1.030757
     23          1           0        5.042045   -1.110231    1.196114
     24          1           0        3.785499    0.044712    1.656138
     25          1           0        4.539068    0.152125    0.056675
     26          1           0       -0.609018   -0.510065   -1.581140
     27          1           0       -1.836446    0.619157   -1.010922
     28          1           0       -1.975936   -0.678655    1.158809
     29          1           0       -0.902127   -1.893948    0.461014
     30          1           0       -2.517775   -2.233071   -1.432484
     31          1           0       -3.606458   -1.057846   -0.700698
     32          1           0       -4.305209   -3.393998   -0.115519
     33          1           0       -3.816893   -2.514950    1.345561
     34          1           0       -2.718197   -3.698275    0.613851
     35          1           0       -0.942137    2.349772    1.032435
 ---------------------------------------------------------------------
                    Distance matrix (angstroms):
                    1          2          3          4          5
     1  C    0.000000
     2  C    1.531772   0.000000
     3  N    2.450274   1.466695   0.000000
     4  C    3.711878   2.445838   1.469590   0.000000
     5  C    4.605578   3.115899   2.546804   1.535135   0.000000
     6  C    5.966524   4.485600   3.895068   2.556872   1.535303
     7  C    6.208063   4.802353   4.493667   3.150595   2.571358
     8  C    3.102915   2.425943   1.468103   2.470698   3.069358
     9  C    4.381400   3.802614   2.506950   2.999766   3.664156
    10  C    5.321308   4.941869   3.848806   4.467938   4.895056
    11  C    6.671535   6.289917   5.049285   5.421905   5.867099
    12  O    1.427731   2.416896   2.720889   3.843865   5.089513
    13  H    1.099152   2.182540   2.841873   4.261893   5.052891
    14  H    1.094881   2.167380   3.387378   4.488666   5.249860
    15  H    2.148871   1.095789   2.083443   2.477306   3.107991
    16  H    2.170699   1.102468   2.150848   2.974359   3.119021
    17  H    4.443688   3.368967   2.092800   1.096498   2.160365
    18  H    3.763928   2.604671   2.067429   1.095330   2.169205
    19  H    4.332276   2.804252   2.790942   2.167441   1.099042
    20  H    4.944642   3.538618   2.814632   2.163226   1.097244
    21  H    6.694565   5.174075   4.689367   3.486015   2.153583
    22  H    6.439103   5.041989   4.163824   2.769548   2.162517
    23  H    7.298328   5.898369   5.546615   4.156964   3.515995
    24  H    5.855025   4.592154   4.223800   2.900162   2.894365
    25  H    5.987487   4.589213   4.620626   3.491004   2.797861
    26  H    3.642966   2.730504   2.132760   2.804940   2.811404
    27  H    2.701496   2.581463   2.078371   3.385965   4.064123
    28  H    4.365472   4.020972   2.678158   3.198431   4.222487
    29  H    5.071405   4.213644   2.842742   2.770230   3.182069
    30  H    5.628967   5.100379   4.162175   4.711160   4.800411
    31  H    5.043868   4.979091   4.076682   4.988992   5.560326
    32  H    7.415344   7.117589   5.969038   6.426846   6.782228
    33  H    6.712042   6.474401   5.184339   5.578583   6.270166
    34  H    7.164891   6.568172   5.250937   5.327409   5.600693
    35  H    1.906613   2.313501   2.076184   3.119239   4.484547
                    6          7          8          9         10
     6  C    0.000000
     7  C    1.533745   0.000000
     8  C    4.491497   5.447292   0.000000
     9  C    4.784793   5.891827   1.528104   0.000000
    10  C    6.012776   7.250964   2.533843   1.532004   0.000000
    11  C    6.732280   8.008350   3.903985   2.547365   1.531224
    12  O    6.297213   6.432902   3.540877   4.438345   5.486066
    13  H    6.515432   6.959828   2.948521   4.203840   4.849968
    14  H    6.544598   6.601544   4.115041   5.452620   6.370685
    15  H    4.224048   4.195293   3.337679   4.580188   5.852962
    16  H    4.552822   5.006327   2.603647   4.101593   5.037181
    17  H    2.785676   3.517570   2.734373   2.656882   4.148186
    18  H    2.787206   2.800447   3.376375   3.963733   5.465970
    19  H    2.162623   2.783778   3.395430   4.341201   5.491240
    20  H    2.156051   3.497052   2.769898   3.192585   4.186131
    21  H    1.097608   2.156714   5.081898   5.388991   6.443851
    22  H    1.099363   2.166381   4.645851   4.582878   5.790910
    23  H    2.180385   1.096022   6.445901   6.765537   8.088983
    24  H    2.192135   1.095495   5.354289   5.747217   7.204049
    25  H    2.178347   1.097371   5.625081   6.324070   7.656449
    26  H    4.263855   5.357930   1.104545   2.164811   2.813838
    27  H    5.529752   6.396170   1.096507   2.143191   2.686597
    28  H    5.241182   6.165929   2.153386   1.098946   2.165839
    29  H    4.048197   5.269473   2.170094   1.097766   2.153579
    30  H    5.927092   7.265005   2.747636   2.160292   1.098865
    31  H    6.805440   7.949883   2.762745   2.158632   1.098657
    32  H    7.673418   8.998605   4.711575   3.502652   2.183296
    33  H    7.098640   8.251545   4.230475   2.808791   2.177361
    34  H    6.252812   7.586315   4.220298   2.808628   2.178575
    35  H    5.645663   5.887641   2.943899   3.646364   4.816141
                   11         12         13         14         15
    11  C    0.000000
    12  O    6.629838   0.000000
    13  H    6.252148   2.076851   0.000000
    14  H    7.748031   2.053664   1.775613   0.000000
    15  H    7.120010   2.746668   3.064233   2.407127   0.000000
    16  H    6.474778   3.364722   2.459238   2.572230   1.776054
    17  H    4.830510   4.320434   4.899450   5.321331   3.483448
    18  H    6.386254   3.725213   4.544684   4.366544   2.186934
    19  H    6.627390   5.056792   4.815123   4.788139   2.685823
    20  H    5.142442   5.511407   5.164887   5.684383   3.825269
    21  H    7.150048   7.178325   7.163042   7.230728   4.968454
    22  H    6.277660   6.584872   6.945829   7.132108   4.870160
    23  H    8.726951   7.480224   8.054117   7.676432   5.273808
    24  H    7.927356   5.857732   6.689977   6.260942   3.905931
    25  H    8.572447   6.383617   6.769847   6.219817   3.874744
    26  H    4.219744   4.377714   3.434293   4.513489   3.603171
    27  H    4.136666   3.204084   2.205032   3.710029   3.634868
    28  H    2.793410   4.067928   4.277618   5.455186   4.711408
    29  H    2.754073   5.138790   5.044910   6.102824   4.818857
    30  H    2.163130   6.041861   5.111206   6.611745   6.027101
    31  H    2.162963   5.193777   4.402536   6.063063   5.974668
    32  H    1.095984   7.442875   6.871619   8.468164   8.010167
    33  H    1.096981   6.439013   6.349671   7.801745   7.256537
    34  H    1.096900   7.144203   6.863956   8.238201   7.298913
    35  H    5.873482   0.976388   2.463525   2.778646   2.694599
                   16         17         18         19         20
    16  H    0.000000
    17  H    3.946244   0.000000
    18  H    3.309378   1.755113   0.000000
    19  H    2.548783   3.068921   2.529890   0.000000
    20  H    3.357840   2.502161   3.071072   1.763319   0.000000
    21  H    5.028304   3.740273   3.811116   2.514191   2.409779
    22  H    5.239840   2.546220   3.083365   3.067944   2.512108
    23  H    6.080581   4.364982   3.813513   3.766719   4.314476
    24  H    5.030617   3.176617   2.253963   3.210320   3.901104
    25  H    4.659940   4.127920   3.072879   2.560158   3.762622
    26  H    2.456547   3.213099   3.776238   2.983988   2.255691
    27  H    2.736318   3.694239   4.141104   4.219475   3.794806
    28  H    4.570405   2.685811   3.961190   4.934816   3.977103
    29  H    4.468342   2.211155   3.780965   4.049390   2.638809
    30  H    4.959307   4.536941   5.773158   5.297744   3.926525
    31  H    5.092708   4.788434   5.908049   6.025684   4.939380
    32  H    7.209397   5.891235   7.414772   7.483402   5.977654
    33  H    6.828944   4.886287   6.431453   7.072571   5.696408
    34  H    6.729509   4.634952   6.304187   6.458176   4.836940
    35  H    3.337594   3.443564   3.101629   4.641213   4.874321
                   21         22         23         24         25
    21  H    0.000000
    22  H    1.758359   0.000000
    23  H    2.461978   2.532122   0.000000
    24  H    3.080903   2.512415   1.767604   0.000000
    25  H    2.543517   3.081639   1.773373   1.771351   0.000000
    26  H    4.633778   4.554053   6.325176   5.486303   5.442768
    27  H    6.111658   5.727127   7.428016   6.248956   6.481131
    28  H    5.993987   4.943040   7.031337   5.827926   6.659592
    29  H    4.604995   3.695929   6.040510   5.211579   5.827221
    30  H    6.181385   5.807136   8.082152   7.379644   7.596433
    31  H    7.283243   6.669327   8.854221   7.836538   8.269657
    32  H    8.006817   7.245394   9.711186   8.967890   9.530261
    33  H    7.647323   6.574867   8.970861   8.027745   8.865472
    34  H    6.596672   5.688504   8.201119   7.575907   8.234314
    35  H    6.565347   5.816731   6.914394   5.296494   5.985429
                   26         27         28         29         30
    26  H    0.000000
    27  H    1.762631   0.000000
    28  H    3.066628   2.532095   0.000000
    29  H    2.484238   3.058634   1.765481   0.000000
    30  H    2.575694   2.962622   3.069951   2.512103   0.000000
    31  H    3.171733   2.457951   2.502029   3.059746   1.761219
    32  H    4.911919   4.796035   3.797699   3.763444   2.505409
    33  H    4.782845   4.392927   2.606910   3.108686   3.079724
    34  H    4.408095   4.696551   3.156903   2.564579   2.524773
    35  H    3.888497   2.823141   3.202512   4.282205   5.436995
                   31         32         33         34         35
    31  H    0.000000
    32  H    2.507647   0.000000
    33  H    2.520835   1.773678   0.000000
    34  H    3.080407   1.772899   1.772792   0.000000
    35  H    4.659852   6.754180   5.659310   6.317315   0.000000
 Stoichiometry    C10H23NO(1-,2)
 Framework group  C1[X(C10H23NO)]
 Deg. of freedom    99
 Full point group                 C1      NOp   1
 Largest Abelian subgroup         C1      NOp   1
 Largest concise Abelian subgroup C1      NOp   1
                         Standard orientation:                         
 ---------------------------------------------------------------------
 Center     Atomic      Atomic             Coordinates (Angstroms)
 Number     Number       Type             X           Y           Z
 ---------------------------------------------------------------------
      1          6           0        0.014175    3.161320   -0.381343
      2          6           0        0.764636    1.853088   -0.649042
      3          7           0        0.136203    0.762742    0.104226
      4          6           0        1.093227   -0.277595    0.506095
      5          6           0        1.678157   -1.125841   -0.631875
      6          6           0        2.696637   -2.162593   -0.136906
      7          6           0        3.976287   -1.546501    0.442145
      8          6           0       -1.061308    0.257427   -0.578378
      9          6           0       -1.858188   -0.749155    0.250403
     10          6           0       -3.210756   -1.071410   -0.392829
     11          6           0       -4.012974   -2.098252    0.411340
     12          8           0       -0.213430    3.300473    1.021243
     13          1           0       -0.944039    3.183817   -0.919352
     14          1           0        0.612607    4.014019   -0.718312
     15          1           0        1.794285    1.961107   -0.290004
     16          1           0        0.804730    1.658394   -1.733442
     17          1           0        0.603343   -0.936787    1.232585
     18          1           0        1.899006    0.232206    1.045142
     19          1           0        2.159051   -0.470216   -1.371327
     20          1           0        0.865365   -1.648160   -1.151969
     21          1           0        2.964266   -2.818784   -0.975078
     22          1           0        2.221395   -2.804446    0.618586
     23          1           0        4.706506   -2.324478    0.692735
     24          1           0        3.777377   -0.974465    1.355008
     25          1           0        4.442200   -0.867699   -0.283374
     26          1           0       -0.805804   -0.188065   -1.556271
     27          1           0       -1.706212    1.118789   -0.789285
     28          1           0       -2.014996   -0.339090    1.257846
     29          1           0       -1.290944   -1.681531    0.368732
     30          1           0       -3.047444   -1.448397   -1.412002
     31          1           0       -3.793194   -0.145096   -0.491591
     32          1           0       -4.974933   -2.315645   -0.066736
     33          1           0       -4.214590   -1.728366    1.424209
     34          1           0       -3.460967   -3.041756    0.502335
     35          1           0       -0.322363    2.378749    1.324381
 ---------------------------------------------------------------------
 Rotational constants (GHZ):           0.7476487           0.5341474           0.3399650
 Standard basis: 6-31+G(d,p) (6D, 7F)
 There are   343 symmetry adapted cartesian basis functions of A   symmetry.
 There are   343 symmetry adapted basis functions of A   symmetry.
   343 basis functions,   545 primitive gaussians,   343 cartesian basis functions
    50 alpha electrons       49 beta electrons
       nuclear repulsion energy       768.1980779415 Hartrees.
 NAtoms=   35 NActive=   35 NUniq=   35 SFac= 1.00D+00 NAtFMM=   60 NAOKFM=F Big=F
 Integral buffers will be    131072 words long.
 Raffenetti 2 integral format.
 Two-electron integral symmetry is turned on.
 Nuclear repulsion after empirical dispersion term =      768.1710213176 Hartrees.
 ------------------------------------------------------------------------------
 Polarizable Continuum Model (PCM)
 =================================
 Model                : PCM.
 Atomic radii         : SMD-Coulomb.
 Polarization charges : Total charges.
 Charge compensation  : None.
 Solution method      : On-the-fly selection.
 Cavity type          : VdW (van der Waals Surface) (Alpha=1.000).
 Cavity algorithm     : GePol (No added spheres)
                        Default sphere list used, NSphG=   35.
                        Lebedev-Laikov grids with approx.  5.0 points / Ang**2.
                        Smoothing algorithm: York/Karplus (Gamma=1.0000).
                        Polarization charges: spherical gaussians, with
                                              point-specific exponents (IZeta= 3).
                        Self-potential: point-specific (ISelfS= 7).
                        Self-field    : sphere-specific E.n sum rule (ISelfD= 2).
 1st derivatives      : Analytical E(r).r(x)/FMM algorithm (CHGder, D1EAlg=3).
                        Cavity 1st derivative terms included.
 Solvent              : Acetonitrile, Eps=  35.688000 Eps(inf)=   1.806874
 ------------------------------------------------------------------------------
 ------------------------------------------------------------------------------
 Atomic radii for non-electrostatic terms: SMD-CDS.
 ------------------------------------------------------------------------------
 Nuclear repulsion after PCM non-electrostatic terms =      768.1664275709 Hartrees.
 One-electron integrals computed using PRISM.
 NBasis=   343 RedAO= T EigKep=  1.22D-05  NBF=   343
 NBsUse=   343 1.00D-06 EigRej= -1.00D+00 NBFU=   343
 ExpMin= 4.38D-02 ExpMax= 5.48D+03 ExpMxC= 8.25D+02 IAcc=3 IRadAn=         5 AccDes= 0.00D+00
 Harris functional with IExCor= 4639 and IRadAn=       5 diagonalized for initial guess.
 HarFok:  IExCor= 4639 AccDes= 0.00D+00 IRadAn=         5 IDoV= 1 UseB2=F ITyADJ=14
 ICtDFT=  3500011 ScaDFX=  1.000000  1.000000  1.000000  1.000000
 FoFCou: FMM=F IPFlag=           0 FMFlag=      100000 FMFlg1=           0
         NFxFlg=           0 DoJE=T BraDBF=F KetDBF=T FulRan=T
         wScrn=  0.000000 ICntrl=       500 IOpCl=  0 I1Cent=   200000004 NGrid=           0
         NMat0=    1 NMatS0=      1 NMatT0=    0 NMatD0=    1 NMtDS0=    0 NMtDT0=    0
 Petite list used in FoFCou.
 Initial guess <Sx>= 0.0000 <Sy>= 0.0000 <Sz>= 0.5000 <S**2>= 0.7500 S= 0.5000
 Requested convergence on RMS density matrix=1.00D-08 within 500 cycles.
 Requested convergence on MAX density matrix=1.00D-06.
 Requested convergence on             energy=1.00D-06.
 No special actions if energy rises.
 Inv3:  Mode=1 IEnd=    16272723.
 Iteration    1 A*A^-1 deviation from unit magnitude is 6.11D-15 for   2313.
 Iteration    1 A*A^-1 deviation from orthogonality  is 2.41D-15 for   2316   2246.
 Iteration    1 A^-1*A deviation from unit magnitude is 6.55D-15 for   2313.
 Iteration    1 A^-1*A deviation from orthogonality  is 5.14D-15 for   2071   2067.
 Restarting incremental Fock formation.
 Restarting incremental Fock formation.
 Restarting incremental Fock formation.
 Error on total polarization charges =  0.17288
 SCF Done:  E(UwB97XD) =  -524.786647737     A.U. after   61 cycles
            NFock= 61  Conv=0.55D-08     -V/T= 2.0097
 <Sx>= 0.0000 <Sy>= 0.0000 <Sz>= 0.5000 <S**2>= 0.7504 S= 0.5002
 <L.S>= 0.000000000000E+00
 SMD-CDS (non-electrostatic) energy       (kcal/mol) =      -2.88
 (included in total energy above)
 Annihilation of the first spin contaminant:
 S**2 before annihilation     0.7504,   after     0.7500

 **********************************************************************

            Population analysis using the SCF Density.

 **********************************************************************

 Orbital symmetries:
 Alpha Orbitals:
       Occupied  (A) (A) (A) (A) (A) (A) (A) (A) (A) (A) (A) (A)
                 (A) (A) (A) (A) (A) (A) (A) (A) (A) (A) (A) (A)
                 (A) (A) (A) (A) (A) (A) (A) (A) (A) (A) (A) (A)
                 (A) (A) (A) (A) (A) (A) (A) (A) (A) (A) (A) (A)
                 (A) (A)
       Virtual   (A) (A) (A) (A) (A) (A) (A) (A) (A) (A) (A) (A)
                 (A) (A) (A) (A) (A) (A) (A) (A) (A) (A) (A) (A)
                 (A) (A) (A) (A) (A) (A) (A) (A) (A) (A) (A) (A)
                 (A) (A) (A) (A) (A) (A) (A) (A) (A) (A) (A) (A)
                 (A) (A) (A) (A) (A) (A) (A) (A) (A) (A) (A) (A)
                 (A) (A) (A) (A) (A) (A) (A) (A) (A) (A) (A) (A)
                 (A) (A) (A) (A) (A) (A) (A) (A) (A) (A) (A) (A)
                 (A) (A) (A) (A) (A) (A) (A) (A) (A) (A) (A) (A)
                 (A) (A) (A) (A) (A) (A) (A) (A) (A) (A) (A) (A)
                 (A) (A) (A) (A) (A) (A) (A) (A) (A) (A) (A) (A)
                 (A) (A) (A) (A) (A) (A) (A) (A) (A) (A) (A) (A)
                 (A) (A) (A) (A) (A) (A) (A) (A) (A) (A) (A) (A)
                 (A) (A) (A) (A) (A) (A) (A) (A) (A) (A) (A) (A)
                 (A) (A) (A) (A) (A) (A) (A) (A) (A) (A) (A) (A)
                 (A) (A) (A) (A) (A) (A) (A) (A) (A) (A) (A) (A)
                 (A) (A) (A) (A) (A) (A) (A) (A) (A) (A) (A) (A)
                 (A) (A) (A) (A) (A) (A) (A) (A) (A) (A) (A) (A)
                 (A) (A) (A) (A) (A) (A) (A) (A) (A) (A) (A) (A)
                 (A) (A) (A) (A) (A) (A) (A) (A) (A) (A) (A) (A)
                 (A) (A) (A) (A) (A) (A) (A) (A) (A) (A) (A) (A)
                 (A) (A) (A) (A) (A) (A) (A) (A) (A) (A) (A) (A)
                 (A) (A) (A) (A) (A) (A) (A) (A) (A) (A) (A) (A)
                 (A) (A) (A) (A) (A) (A) (A) (A) (A) (A) (A) (A)
                 (A) (A) (A) (A) (A) (A) (A) (A) (A) (A) (A) (A)
                 (A) (A) (A) (A) (A)
 Beta  Orbitals:
       Occupied  (A) (A) (A) (A) (A) (A) (A) (A) (A) (A) (A) (A)
                 (A) (A) (A) (A) (A) (A) (A) (A) (A) (A) (A) (A)
                 (A) (A) (A) (A) (A) (A) (A) (A) (A) (A) (A) (A)
                 (A) (A) (A) (A) (A) (A) (A) (A) (A) (A) (A) (A)
                 (A)
       Virtual   (A) (A) (A) (A) (A) (A) (A) (A) (A) (A) (A) (A)
                 (A) (A) (A) (A) (A) (A) (A) (A) (A) (A) (A) (A)
                 (A) (A) (A) (A) (A) (A) (A) (A) (A) (A) (A) (A)
                 (A) (A) (A) (A) (A) (A) (A) (A) (A) (A) (A) (A)
                 (A) (A) (A) (A) (A) (A) (A) (A) (A) (A) (A) (A)
                 (A) (A) (A) (A) (A) (A) (A) (A) (A) (A) (A) (A)
                 (A) (A) (A) (A) (A) (A) (A) (A) (A) (A) (A) (A)
                 (A) (A) (A) (A) (A) (A) (A) (A) (A) (A) (A) (A)
                 (A) (A) (A) (A) (A) (A) (A) (A) (A) (A) (A) (A)
                 (A) (A) (A) (A) (A) (A) (A) (A) (A) (A) (A) (A)
                 (A) (A) (A) (A) (A) (A) (A) (A) (A) (A) (A) (A)
                 (A) (A) (A) (A) (A) (A) (A) (A) (A) (A) (A) (A)
                 (A) (A) (A) (A) (A) (A) (A) (A) (A) (A) (A) (A)
                 (A) (A) (A) (A) (A) (A) (A) (A) (A) (A) (A) (A)
                 (A) (A) (A) (A) (A) (A) (A) (A) (A) (A) (A) (A)
                 (A) (A) (A) (A) (A) (A) (A) (A) (A) (A) (A) (A)
                 (A) (A) (A) (A) (A) (A) (A) (A) (A) (A) (A) (A)
                 (A) (A) (A) (A) (A) (A) (A) (A) (A) (A) (A) (A)
                 (A) (A) (A) (A) (A) (A) (A) (A) (A) (A) (A) (A)
                 (A) (A) (A) (A) (A) (A) (A) (A) (A) (A) (A) (A)
                 (A) (A) (A) (A) (A) (A) (A) (A) (A) (A) (A) (A)
                 (A) (A) (A) (A) (A) (A) (A) (A) (A) (A) (A) (A)
                 (A) (A) (A) (A) (A) (A) (A) (A) (A) (A) (A) (A)
                 (A) (A) (A) (A) (A) (A) (A) (A) (A) (A) (A) (A)
                 (A) (A) (A) (A) (A) (A)
 The electronic state is 2-A.
 Alpha  occ. eigenvalues --  -19.26077 -14.44031 -10.32707 -10.30753 -10.30147
 Alpha  occ. eigenvalues --  -10.30068 -10.28110 -10.27749 -10.27525 -10.27443
 Alpha  occ. eigenvalues --  -10.27197 -10.26315  -1.10839  -1.01078  -0.88250
 Alpha  occ. eigenvalues --   -0.87395  -0.82619  -0.80965  -0.77355  -0.72955
 Alpha  occ. eigenvalues --   -0.71161  -0.66651  -0.66272  -0.62923  -0.58395
 Alpha  occ. eigenvalues --   -0.56404  -0.54579  -0.54117  -0.53469  -0.51654
 Alpha  occ. eigenvalues --   -0.50430  -0.49719  -0.48912  -0.47468  -0.46858
 Alpha  occ. eigenvalues --   -0.45646  -0.44705  -0.43937  -0.42740  -0.41561
 Alpha  occ. eigenvalues --   -0.40715  -0.40243  -0.39809  -0.39320  -0.38830
 Alpha  occ. eigenvalues --   -0.38700  -0.38302  -0.34582  -0.28692  -0.06952
 Alpha virt. eigenvalues --    0.07611   0.07995   0.08697   0.09581   0.09903
 Alpha virt. eigenvalues --    0.10287   0.10654   0.11412   0.11777   0.12532
 Alpha virt. eigenvalues --    0.13401   0.13824   0.13950   0.14318   0.14907
 Alpha virt. eigenvalues --    0.15780   0.16017   0.16266   0.16916   0.17955
 Alpha virt. eigenvalues --    0.18293   0.18695   0.18870   0.19711   0.20219
 Alpha virt. eigenvalues --    0.21026   0.21442   0.21962   0.22486   0.22611
 Alpha virt. eigenvalues --    0.23593   0.24051   0.24989   0.25606   0.26140
 Alpha virt. eigenvalues --    0.26477   0.26890   0.27415   0.27829   0.28221
 Alpha virt. eigenvalues --    0.28859   0.29189   0.29919   0.30679   0.30915
 Alpha virt. eigenvalues --    0.31383   0.31628   0.31906   0.32436   0.33599
 Alpha virt. eigenvalues --    0.34007   0.34250   0.35086   0.35450   0.35871
 Alpha virt. eigenvalues --    0.36220   0.36841   0.37153   0.37232   0.37862
 Alpha virt. eigenvalues --    0.38152   0.38790   0.39670   0.40728   0.41263
 Alpha virt. eigenvalues --    0.42403   0.42534   0.42982   0.43121   0.44349
 Alpha virt. eigenvalues --    0.44655   0.45198   0.45992   0.46905   0.47238
 Alpha virt. eigenvalues --    0.48029   0.49363   0.50875   0.51959   0.54501
 Alpha virt. eigenvalues --    0.59402   0.70866   0.72483   0.73182   0.73779
 Alpha virt. eigenvalues --    0.75325   0.75428   0.76233   0.77353   0.78030
 Alpha virt. eigenvalues --    0.78809   0.79921   0.81014   0.81643   0.81900
 Alpha virt. eigenvalues --    0.82894   0.84065   0.84666   0.85839   0.86096
 Alpha virt. eigenvalues --    0.87791   0.91086   0.93395   0.94579   0.95639
 Alpha virt. eigenvalues --    0.97672   0.99493   1.01447   1.03072   1.03289
 Alpha virt. eigenvalues --    1.04221   1.04650   1.05243   1.06919   1.08379
 Alpha virt. eigenvalues --    1.09520   1.10188   1.11654   1.12534   1.13384
 Alpha virt. eigenvalues --    1.14678   1.15819   1.16963   1.18823   1.19936
 Alpha virt. eigenvalues --    1.20836   1.21656   1.22606   1.22850   1.22964
 Alpha virt. eigenvalues --    1.24005   1.24591   1.25028   1.26253   1.26769
 Alpha virt. eigenvalues --    1.28041   1.29414   1.31759   1.32149   1.35060
 Alpha virt. eigenvalues --    1.36099   1.41189   1.42859   1.44451   1.46745
 Alpha virt. eigenvalues --    1.47937   1.50497   1.52050   1.53110   1.55462
 Alpha virt. eigenvalues --    1.57312   1.60353   1.62352   1.63843   1.67933
 Alpha virt. eigenvalues --    1.70315   1.71262   1.72385   1.75043   1.77399
 Alpha virt. eigenvalues --    1.78859   1.79417   1.80451   1.82623   1.84317
 Alpha virt. eigenvalues --    1.89689   1.91138   1.94820   1.95537   1.97288
 Alpha virt. eigenvalues --    1.98404   1.99568   2.00695   2.01824   2.03922
 Alpha virt. eigenvalues --    2.04882   2.05388   2.07172   2.08596   2.09490
 Alpha virt. eigenvalues --    2.10294   2.12612   2.13589   2.14329   2.15200
 Alpha virt. eigenvalues --    2.16822   2.17869   2.20430   2.21903   2.22169
 Alpha virt. eigenvalues --    2.22869   2.23019   2.24174   2.24442   2.26038
 Alpha virt. eigenvalues --    2.27738   2.28416   2.29137   2.30953   2.33439
 Alpha virt. eigenvalues --    2.34702   2.36342   2.37014   2.38283   2.38964
 Alpha virt. eigenvalues --    2.40566   2.41241   2.42381   2.42960   2.44579
 Alpha virt. eigenvalues --    2.45862   2.47120   2.49955   2.52223   2.53729
 Alpha virt. eigenvalues --    2.55888   2.57332   2.59500   2.61280   2.62662
 Alpha virt. eigenvalues --    2.64056   2.64357   2.67727   2.70424   2.71831
 Alpha virt. eigenvalues --    2.72376   2.75948   2.77925   2.78115   2.80793
 Alpha virt. eigenvalues --    2.82067   2.82787   2.83379   2.85394   2.86527
 Alpha virt. eigenvalues --    2.87126   2.88361   2.90529   2.91048   2.92170
 Alpha virt. eigenvalues --    2.93173   2.95547   2.97089   2.98197   2.98670
 Alpha virt. eigenvalues --    3.00301   3.00774   3.02036   3.02938   3.03000
 Alpha virt. eigenvalues --    3.03682   3.04668   3.06615   3.07132   3.09248
 Alpha virt. eigenvalues --    3.12789   3.14866   3.19183   3.35156   3.36578
 Alpha virt. eigenvalues --    3.42485   3.43463   3.44359   3.45066   3.46252
 Alpha virt. eigenvalues --    3.47087   3.47557   3.50240   3.53251   3.55775
 Alpha virt. eigenvalues --    3.57117   3.58159   3.59764   3.60653   3.62989
 Alpha virt. eigenvalues --    3.64840   3.66885   3.67967   3.71139   3.73679
 Alpha virt. eigenvalues --    3.74028   4.37761   4.44299   4.46354   4.50762
 Alpha virt. eigenvalues --    4.60230   4.62314   4.64341   4.73053   4.76196
 Alpha virt. eigenvalues --    4.82444   4.86952   4.88501
  Beta  occ. eigenvalues --  -19.26077 -14.44023 -10.32705 -10.30747 -10.30107
  Beta  occ. eigenvalues --  -10.30066 -10.28097 -10.27730 -10.27470 -10.27440
  Beta  occ. eigenvalues --  -10.27196 -10.26147  -1.10837  -1.01041  -0.88199
  Beta  occ. eigenvalues --   -0.87278  -0.82595  -0.80908  -0.77270  -0.72853
  Beta  occ. eigenvalues --   -0.71134  -0.66580  -0.66156  -0.62766  -0.58363
  Beta  occ. eigenvalues --   -0.56358  -0.54527  -0.54077  -0.53434  -0.51528
  Beta  occ. eigenvalues --   -0.50399  -0.49695  -0.48836  -0.47385  -0.46833
  Beta  occ. eigenvalues --   -0.45569  -0.44660  -0.43910  -0.42690  -0.41529
  Beta  occ. eigenvalues --   -0.40680  -0.40168  -0.39770  -0.39290  -0.38707
  Beta  occ. eigenvalues --   -0.38650  -0.38223  -0.34579  -0.28643
  Beta virt. eigenvalues --    0.08402   0.08896   0.09374   0.09559   0.10348
  Beta virt. eigenvalues --    0.10867   0.11385   0.12098   0.12447   0.13052
  Beta virt. eigenvalues --    0.13747   0.14539   0.14665   0.14959   0.15428
  Beta virt. eigenvalues --    0.15958   0.16538   0.17044   0.17315   0.18702
  Beta virt. eigenvalues --    0.18830   0.19117   0.19586   0.19871   0.20698
  Beta virt. eigenvalues --    0.21104   0.21821   0.22229   0.22929   0.23807
  Beta virt. eigenvalues --    0.24195   0.25280   0.25488   0.26265   0.26572
  Beta virt. eigenvalues --    0.27530   0.27684   0.27983   0.28706   0.28789
  Beta virt. eigenvalues --    0.29298   0.29631   0.29802   0.30361   0.31242
  Beta virt. eigenvalues --    0.31706   0.31763   0.32459   0.32774   0.33376
  Beta virt. eigenvalues --    0.33907   0.34805   0.35108   0.35541   0.36218
  Beta virt. eigenvalues --    0.36386   0.36631   0.37406   0.37505   0.37837
  Beta virt. eigenvalues --    0.38582   0.38867   0.39363   0.40297   0.41516
  Beta virt. eigenvalues --    0.41667   0.43018   0.43359   0.43581   0.43847
  Beta virt. eigenvalues --    0.44733   0.45270   0.45653   0.46678   0.47320
  Beta virt. eigenvalues --    0.48019   0.48708   0.49910   0.51209   0.52319
  Beta virt. eigenvalues --    0.54603   0.59429   0.71009   0.72969   0.73625
  Beta virt. eigenvalues --    0.74157   0.75599   0.75947   0.76423   0.77501
  Beta virt. eigenvalues --    0.78294   0.79013   0.80092   0.81118   0.81718
  Beta virt. eigenvalues --    0.81991   0.83157   0.84179   0.84868   0.86017
  Beta virt. eigenvalues --    0.86209   0.88037   0.91198   0.93454   0.94665
  Beta virt. eigenvalues --    0.95756   0.97774   0.99628   1.01571   1.03226
  Beta virt. eigenvalues --    1.03387   1.04331   1.04734   1.05502   1.07111
  Beta virt. eigenvalues --    1.08460   1.09620   1.10315   1.11815   1.12611
  Beta virt. eigenvalues --    1.13549   1.14936   1.16045   1.17312   1.19044
  Beta virt. eigenvalues --    1.20041   1.21125   1.21967   1.22878   1.22966
  Beta virt. eigenvalues --    1.23079   1.24310   1.24776   1.25201   1.26540
  Beta virt. eigenvalues --    1.26933   1.28173   1.29544   1.31783   1.32212
  Beta virt. eigenvalues --    1.35101   1.36151   1.41295   1.42925   1.44494
  Beta virt. eigenvalues --    1.46787   1.47984   1.50541   1.52088   1.53142
  Beta virt. eigenvalues --    1.55507   1.57355   1.60382   1.62410   1.63862
  Beta virt. eigenvalues --    1.68009   1.70355   1.71281   1.72377   1.75060
  Beta virt. eigenvalues --    1.77416   1.78872   1.79436   1.80480   1.82651
  Beta virt. eigenvalues --    1.84393   1.89744   1.91214   1.94884   1.95559
  Beta virt. eigenvalues --    1.97342   1.98503   1.99643   2.00761   2.01925
  Beta virt. eigenvalues --    2.03988   2.04957   2.05441   2.07230   2.08639
  Beta virt. eigenvalues --    2.09606   2.10352   2.12664   2.13619   2.14353
  Beta virt. eigenvalues --    2.15200   2.16837   2.17900   2.20460   2.21934
  Beta virt. eigenvalues --    2.22200   2.22887   2.23057   2.24224   2.24496
  Beta virt. eigenvalues --    2.26059   2.27757   2.28527   2.29188   2.31020
  Beta virt. eigenvalues --    2.33488   2.34730   2.36361   2.37021   2.38275
  Beta virt. eigenvalues --    2.38981   2.40595   2.41243   2.42422   2.42979
  Beta virt. eigenvalues --    2.44591   2.45879   2.47134   2.49994   2.52250
  Beta virt. eigenvalues --    2.53742   2.55912   2.57350   2.59518   2.61296
  Beta virt. eigenvalues --    2.62692   2.64071   2.64379   2.67747   2.70483
  Beta virt. eigenvalues --    2.71867   2.72384   2.75955   2.77948   2.78155
  Beta virt. eigenvalues --    2.80828   2.82099   2.82801   2.83404   2.85417
  Beta virt. eigenvalues --    2.86543   2.87192   2.88387   2.90559   2.91064
  Beta virt. eigenvalues --    2.92188   2.93213   2.95569   2.97126   2.98203
  Beta virt. eigenvalues --    2.98686   3.00329   3.00788   3.02077   3.02946
  Beta virt. eigenvalues --    3.03043   3.03695   3.04708   3.06637   3.07184
  Beta virt. eigenvalues --    3.09275   3.12815   3.14886   3.19193   3.35179
  Beta virt. eigenvalues --    3.36614   3.42496   3.43503   3.44399   3.45139
  Beta virt. eigenvalues --    3.46404   3.47140   3.47605   3.50302   3.53300
  Beta virt. eigenvalues --    3.55912   3.57146   3.58192   3.59787   3.60668
  Beta virt. eigenvalues --    3.63083   3.64863   3.66921   3.68004   3.71195
  Beta virt. eigenvalues --    3.73781   3.74036   4.37781   4.44349   4.46417
  Beta virt. eigenvalues --    4.50836   4.60261   4.62343   4.64469   4.73100
  Beta virt. eigenvalues --    4.76265   4.82464   4.87128   4.88563
          Condensed to atoms (all electrons):
               1          2          3          4          5          6
     1  C   15.937777 -12.247888   1.133743   9.576812  -7.270097  -1.227825
     2  C  -12.247888  20.090417  -1.238492 -13.021818   9.785045   1.577936
     3  N    1.133743  -1.238492   7.795591  -1.714471   1.631687   0.590903
     4  C    9.576812 -13.021818  -1.714471  62.229537 -47.487768 -18.659554
     5  C   -7.270097   9.785045   1.631687 -47.487768  46.433129  17.159871
     6  C   -1.227825   1.577936   0.590903 -18.659554  17.159871  21.554544
     7  C    1.190376  -1.565452  -0.623767  18.913175 -17.376257 -16.123036
     8  C   -4.886891   6.134208   0.163826 -12.952070   9.718456   1.540416
     9  C    3.764691  -4.863377  -0.079683  10.575266  -8.040064  -1.213693
    10  C   -0.247016   0.292680   0.004915  -0.504378   0.343990   0.027104
    11  C    0.060895  -0.090691  -0.020398   0.293599  -0.215093  -0.016219
    12  O   -0.226266   0.395260  -0.093098  -0.158642   0.097656   0.006821
    13  H    0.383554  -0.001320  -0.017617  -0.020065   0.008400   0.000037
    14  H    0.437147  -0.063160   0.006947  -0.006003   0.004770   0.000893
    15  H    0.029591   0.333951  -0.051065   0.093293  -0.072927  -0.015288
    16  H    0.034720   0.321566  -0.036143   0.006084  -0.014489   0.001710
    17  H   -0.009021   0.023353  -0.037535   0.290668   0.045517   0.010529
    18  H   -0.049428   0.037045  -0.049267   0.147298   0.193116   0.081590
    19  H    0.031764  -0.039797  -0.017873   0.255648   0.108272  -0.136180
    20  H    0.008810  -0.020885  -0.014194   0.153602   0.239597  -0.083511
    21  H    0.001259   0.000519  -0.002468   0.115193  -0.133102   0.266156
    22  H    0.002551  -0.004393  -0.009864   0.212215  -0.262704   0.245340
    23  H    0.000110   0.000049  -0.000079   0.016289   0.006822  -0.117517
    24  H   -0.003404   0.007314   0.003278  -0.117163   0.120567   0.065701
    25  H   -0.000053  -0.000637  -0.000276  -0.010053   0.018340  -0.038808
    26  H    0.032568  -0.054783  -0.069948   0.076824  -0.055535  -0.002389
    27  H    0.040922  -0.065404  -0.066892   0.068157  -0.045795  -0.003593
    28  H   -0.015610   0.025572   0.015863  -0.060937   0.044885   0.001998
    29  H   -0.007861   0.011132  -0.001778  -0.093988   0.064780  -0.000016
    30  H   -0.005121   0.008250   0.002092  -0.027930   0.017718  -0.000379
    31  H   -0.001403   0.001901  -0.003133  -0.006910   0.001383  -0.000041
    32  H   -0.000077   0.000046   0.000032  -0.000616   0.000347  -0.000014
    33  H   -0.000402   0.000610  -0.000294  -0.001461   0.001581  -0.000074
    34  H   -0.000187   0.000380   0.000161  -0.005933   0.003066  -0.000112
    35  H   -0.080005   0.030528   0.052644  -0.056149   0.044601   0.005035
               7          8          9         10         11         12
     1  C    1.190376  -4.886891   3.764691  -0.247016   0.060895  -0.226266
     2  C   -1.565452   6.134208  -4.863377   0.292680  -0.090691   0.395260
     3  N   -0.623767   0.163826  -0.079683   0.004915  -0.020398  -0.093098
     4  C   18.913175 -12.952070  10.575266  -0.504378   0.293599  -0.158642
     5  C  -17.376257   9.718456  -8.040064   0.343990  -0.215093   0.097656
     6  C  -16.123036   1.540416  -1.213693   0.027104  -0.016219   0.006821
     7  C   21.908957  -1.602030   1.258956  -0.029700   0.024293  -0.007139
     8  C   -1.602030  14.820203  -8.479560   0.926102  -0.433315   0.126977
     9  C    1.258956  -8.479560  13.866234  -0.933151   0.472397  -0.090462
    10  C   -0.029700   0.926102  -0.933151   5.814472  -0.057400   0.007331
    11  C    0.024293  -0.433315   0.472397  -0.057400   5.425624  -0.000932
    12  O   -0.007139   0.126977  -0.090462   0.007331  -0.000932   8.375824
    13  H   -0.000290  -0.001409   0.007054  -0.001771   0.000054  -0.057107
    14  H   -0.000580   0.012672  -0.004132   0.000356  -0.000001  -0.052777
    15  H    0.014502  -0.011140   0.007442  -0.000013   0.000019   0.000324
    16  H    0.001886  -0.019998   0.010832  -0.001251  -0.000179   0.002428
    17  H   -0.026699   0.039426  -0.029364   0.002927   0.000034   0.000586
    18  H   -0.075475   0.048529  -0.025852   0.000411  -0.000207   0.001869
    19  H    0.114012  -0.015104   0.020873   0.001836   0.000245  -0.000152
    20  H    0.067879  -0.043188   0.045028  -0.005991   0.001291   0.000035
    21  H    0.088924  -0.005879   0.003275  -0.000155   0.000017  -0.000001
    22  H    0.135170  -0.012415   0.011793   0.000009   0.000488  -0.000002
    23  H    0.459699  -0.000043   0.000131  -0.000002   0.000001  -0.000000
    24  H    0.280651   0.002838  -0.002960  -0.000007  -0.000020   0.000003
    25  H    0.386579   0.001503  -0.000106   0.000029   0.000001  -0.000001
    26  H    0.006264   0.440252  -0.066080   0.007352  -0.003785  -0.001798
    27  H    0.001798   0.317747   0.060172   0.007247   0.006799   0.000974
    28  H   -0.002390   0.076054   0.246431   0.019530  -0.030301  -0.000464
    29  H   -0.006774   0.009450   0.362708  -0.025115   0.004692   0.000125
    30  H   -0.000756   0.079361  -0.144954   0.412611  -0.029261   0.000003
    31  H   -0.000013  -0.002501  -0.073555   0.407676  -0.000624   0.000032
    32  H   -0.000007  -0.006348   0.023183  -0.087981   0.435697  -0.000000
    33  H   -0.000046   0.013070  -0.003359  -0.087583   0.434387   0.000000
    34  H   -0.000128   0.005351  -0.012206  -0.070578   0.436486  -0.000000
    35  H   -0.003525   0.044260  -0.032175   0.001210  -0.000162   0.243189
              13         14         15         16         17         18
     1  C    0.383554   0.437147   0.029591   0.034720  -0.009021  -0.049428
     2  C   -0.001320  -0.063160   0.333951   0.321566   0.023353   0.037045
     3  N   -0.017617   0.006947  -0.051065  -0.036143  -0.037535  -0.049267
     4  C   -0.020065  -0.006003   0.093293   0.006084   0.290668   0.147298
     5  C    0.008400   0.004770  -0.072927  -0.014489   0.045517   0.193116
     6  C    0.000037   0.000893  -0.015288   0.001710   0.010529   0.081590
     7  C   -0.000290  -0.000580   0.014502   0.001886  -0.026699  -0.075475
     8  C   -0.001409   0.012672  -0.011140  -0.019998   0.039426   0.048529
     9  C    0.007054  -0.004132   0.007442   0.010832  -0.029364  -0.025852
    10  C   -0.001771   0.000356  -0.000013  -0.001251   0.002927   0.000411
    11  C    0.000054  -0.000001   0.000019  -0.000179   0.000034  -0.000207
    12  O   -0.057107  -0.052777   0.000324   0.002428   0.000586   0.001869
    13  H    0.599226  -0.042130   0.003938  -0.002740   0.000011  -0.000005
    14  H   -0.042130   0.547670  -0.006346   0.000591   0.000002  -0.000008
    15  H    0.003938  -0.006346   0.535912  -0.031857   0.000388   0.003327
    16  H   -0.002740   0.000591  -0.031857   0.563371  -0.000303  -0.000305
    17  H    0.000011   0.000002   0.000388  -0.000303   0.561020  -0.028215
    18  H   -0.000005  -0.000008   0.003327  -0.000305  -0.028215   0.571803
    19  H   -0.000000  -0.000000   0.000253  -0.001729   0.004503  -0.005764
    20  H    0.000001  -0.000000   0.000142   0.000252  -0.006498   0.004327
    21  H   -0.000000  -0.000000   0.000001   0.000003  -0.000114  -0.000170
    22  H   -0.000000  -0.000000   0.000000  -0.000002   0.002930  -0.000609
    23  H    0.000000  -0.000000   0.000000  -0.000000  -0.000009   0.000008
    24  H    0.000000   0.000000  -0.000053   0.000001   0.000134  -0.000562
    25  H   -0.000000   0.000000  -0.000008  -0.000001   0.000055   0.000034
    26  H    0.000144  -0.000023  -0.000115   0.007140  -0.000570  -0.000324
    27  H    0.002448  -0.000075   0.000219  -0.002725   0.000104  -0.000096
    28  H    0.000032  -0.000001  -0.000003   0.000001   0.000413  -0.000007
    29  H   -0.000001   0.000000   0.000002  -0.000012  -0.002244   0.000167
    30  H    0.000003  -0.000000  -0.000000  -0.000003   0.000016   0.000000
    31  H   -0.000007   0.000000   0.000000   0.000001  -0.000007   0.000000
    32  H    0.000000  -0.000000   0.000000  -0.000000  -0.000000   0.000000
    33  H    0.000000   0.000000  -0.000000  -0.000000   0.000002   0.000000
    34  H   -0.000000   0.000000  -0.000000   0.000000  -0.000002   0.000000
    35  H   -0.000835   0.005606  -0.001830   0.001058  -0.000056  -0.000431
              19         20         21         22         23         24
     1  C    0.031764   0.008810   0.001259   0.002551   0.000110  -0.003404
     2  C   -0.039797  -0.020885   0.000519  -0.004393   0.000049   0.007314
     3  N   -0.017873  -0.014194  -0.002468  -0.009864  -0.000079   0.003278
     4  C    0.255648   0.153602   0.115193   0.212215   0.016289  -0.117163
     5  C    0.108272   0.239597  -0.133102  -0.262704   0.006822   0.120567
     6  C   -0.136180  -0.083511   0.266156   0.245340  -0.117517   0.065701
     7  C    0.114012   0.067879   0.088924   0.135170   0.459699   0.280651
     8  C   -0.015104  -0.043188  -0.005879  -0.012415  -0.000043   0.002838
     9  C    0.020873   0.045028   0.003275   0.011793   0.000131  -0.002960
    10  C    0.001836  -0.005991  -0.000155   0.000009  -0.000002  -0.000007
    11  C    0.000245   0.001291   0.000017   0.000488   0.000001  -0.000020
    12  O   -0.000152   0.000035  -0.000001  -0.000002  -0.000000   0.000003
    13  H   -0.000000   0.000001  -0.000000  -0.000000   0.000000   0.000000
    14  H   -0.000000  -0.000000  -0.000000  -0.000000  -0.000000   0.000000
    15  H    0.000253   0.000142   0.000001   0.000000   0.000000  -0.000053
    16  H   -0.001729   0.000252   0.000003  -0.000002  -0.000000   0.000001
    17  H    0.004503  -0.006498  -0.000114   0.002930  -0.000009   0.000134
    18  H   -0.005764   0.004327  -0.000170  -0.000609   0.000008  -0.000562
    19  H    0.572353  -0.032128  -0.002931   0.005130   0.000049  -0.000427
    20  H   -0.032128   0.556240  -0.004401  -0.003038  -0.000100  -0.000112
    21  H   -0.002931  -0.004401   0.572424  -0.030623  -0.003746   0.004189
    22  H    0.005130  -0.003038  -0.030623   0.572035  -0.002012  -0.005593
    23  H    0.000049  -0.000100  -0.003746  -0.002012   0.536178  -0.027481
    24  H   -0.000427  -0.000112   0.004189  -0.005593  -0.027481   0.545167
    25  H    0.003265   0.000026  -0.004086   0.004305  -0.026348  -0.029635
    26  H    0.000332  -0.002268   0.000020   0.000010   0.000000  -0.000000
    27  H    0.000018   0.000172  -0.000000   0.000000  -0.000000  -0.000000
    28  H   -0.000007  -0.000052  -0.000000  -0.000003  -0.000000   0.000000
    29  H   -0.000026   0.000222  -0.000008  -0.000064  -0.000000   0.000001
    30  H   -0.000002  -0.000075  -0.000000  -0.000000  -0.000000   0.000000
    31  H   -0.000000   0.000000   0.000000  -0.000000   0.000000   0.000000
    32  H   -0.000000  -0.000000  -0.000000  -0.000000   0.000000   0.000000
    33  H   -0.000000  -0.000000  -0.000000  -0.000000  -0.000000   0.000000
    34  H   -0.000000  -0.000002  -0.000000  -0.000000   0.000000   0.000000
    35  H   -0.000011  -0.000006   0.000000  -0.000000  -0.000000   0.000002
              25         26         27         28         29         30
     1  C   -0.000053   0.032568   0.040922  -0.015610  -0.007861  -0.005121
     2  C   -0.000637  -0.054783  -0.065404   0.025572   0.011132   0.008250
     3  N   -0.000276  -0.069948  -0.066892   0.015863  -0.001778   0.002092
     4  C   -0.010053   0.076824   0.068157  -0.060937  -0.093988  -0.027930
     5  C    0.018340  -0.055535  -0.045795   0.044885   0.064780   0.017718
     6  C   -0.038808  -0.002389  -0.003593   0.001998  -0.000016  -0.000379
     7  C    0.386579   0.006264   0.001798  -0.002390  -0.006774  -0.000756
     8  C    0.001503   0.440252   0.317747   0.076054   0.009450   0.079361
     9  C   -0.000106  -0.066080   0.060172   0.246431   0.362708  -0.144954
    10  C    0.000029   0.007352   0.007247   0.019530  -0.025115   0.412611
    11  C    0.000001  -0.003785   0.006799  -0.030301   0.004692  -0.029261
    12  O   -0.000001  -0.001798   0.000974  -0.000464   0.000125   0.000003
    13  H   -0.000000   0.000144   0.002448   0.000032  -0.000001   0.000003
    14  H    0.000000  -0.000023  -0.000075  -0.000001   0.000000  -0.000000
    15  H   -0.000008  -0.000115   0.000219  -0.000003   0.000002  -0.000000
    16  H   -0.000001   0.007140  -0.002725   0.000001  -0.000012  -0.000003
    17  H    0.000055  -0.000570   0.000104   0.000413  -0.002244   0.000016
    18  H    0.000034  -0.000324  -0.000096  -0.000007   0.000167   0.000000
    19  H    0.003265   0.000332   0.000018  -0.000007  -0.000026  -0.000002
    20  H    0.000026  -0.002268   0.000172  -0.000052   0.000222  -0.000075
    21  H   -0.004086   0.000020  -0.000000  -0.000000  -0.000008  -0.000000
    22  H    0.004305   0.000010   0.000000  -0.000003  -0.000064  -0.000000
    23  H   -0.026348   0.000000  -0.000000  -0.000000  -0.000000  -0.000000
    24  H   -0.029635  -0.000000  -0.000000   0.000000   0.000001   0.000000
    25  H    0.537368   0.000000  -0.000000   0.000000   0.000000   0.000000
    26  H    0.000000   0.579694  -0.042706   0.004331  -0.007479   0.001354
    27  H   -0.000000  -0.042706   0.578039  -0.005220   0.004551  -0.000959
    28  H    0.000000   0.004331  -0.005220   0.555540  -0.033783   0.004704
    29  H    0.000000  -0.007479   0.004551  -0.033783   0.553299  -0.005164
    30  H    0.000000   0.001354  -0.000959   0.004704  -0.005164   0.560821
    31  H   -0.000000  -0.000223   0.002839  -0.005431   0.004573  -0.033608
    32  H    0.000000   0.000002  -0.000002   0.000004   0.000007  -0.002841
    33  H    0.000000  -0.000007  -0.000005   0.002840  -0.000381   0.004432
    34  H    0.000000   0.000005  -0.000005  -0.000278   0.002924  -0.004334
    35  H    0.000000   0.000184  -0.001618   0.000124   0.000016   0.000001
              31         32         33         34         35
     1  C   -0.001403  -0.000077  -0.000402  -0.000187  -0.080005
     2  C    0.001901   0.000046   0.000610   0.000380   0.030528
     3  N   -0.003133   0.000032  -0.000294   0.000161   0.052644
     4  C   -0.006910  -0.000616  -0.001461  -0.005933  -0.056149
     5  C    0.001383   0.000347   0.001581   0.003066   0.044601
     6  C   -0.000041  -0.000014  -0.000074  -0.000112   0.005035
     7  C   -0.000013  -0.000007  -0.000046  -0.000128  -0.003525
     8  C   -0.002501  -0.006348   0.013070   0.005351   0.044260
     9  C   -0.073555   0.023183  -0.003359  -0.012206  -0.032175
    10  C    0.407676  -0.087981  -0.087583  -0.070578   0.001210
    11  C   -0.000624   0.435697   0.434387   0.436486  -0.000162
    12  O    0.000032  -0.000000   0.000000  -0.000000   0.243189
    13  H   -0.000007   0.000000   0.000000  -0.000000  -0.000835
    14  H    0.000000  -0.000000   0.000000   0.000000   0.005606
    15  H    0.000000   0.000000  -0.000000  -0.000000  -0.001830
    16  H    0.000001  -0.000000  -0.000000   0.000000   0.001058
    17  H   -0.000007  -0.000000   0.000002  -0.000002  -0.000056
    18  H    0.000000   0.000000   0.000000   0.000000  -0.000431
    19  H   -0.000000  -0.000000  -0.000000  -0.000000  -0.000011
    20  H    0.000000  -0.000000  -0.000000  -0.000002  -0.000006
    21  H    0.000000  -0.000000  -0.000000  -0.000000   0.000000
    22  H   -0.000000  -0.000000  -0.000000  -0.000000  -0.000000
    23  H    0.000000   0.000000  -0.000000   0.000000  -0.000000
    24  H    0.000000   0.000000   0.000000   0.000000   0.000002
    25  H   -0.000000   0.000000   0.000000   0.000000   0.000000
    26  H   -0.000223   0.000002  -0.000007   0.000005   0.000184
    27  H    0.002839  -0.000002  -0.000005  -0.000005  -0.001618
    28  H   -0.005431   0.000004   0.002840  -0.000278   0.000124
    29  H    0.004573   0.000007  -0.000381   0.002924   0.000016
    30  H   -0.033608  -0.002841   0.004432  -0.004334   0.000001
    31  H    0.558851  -0.002963  -0.004644   0.004216   0.000006
    32  H   -0.002963   0.531222  -0.026603  -0.026040   0.000000
    33  H   -0.004644  -0.026603   0.535785  -0.029223   0.000000
    34  H    0.004216  -0.026040  -0.029223   0.532295   0.000000
    35  H    0.000006   0.000000   0.000000   0.000000   0.352308
          Atomic-Atomic Spin Densities.
               1          2          3          4          5          6
     1  C   10.798353 -12.212328   1.072097   9.509712  -7.229570  -1.238655
     2  C  -12.212328  14.096609  -1.151691 -12.680262   9.704316   1.609058
     3  N    1.072097  -1.151691   0.408776  -1.868098   1.675335   0.617111
     4  C    9.509712 -12.680262  -1.868098  55.672247 -47.074274 -18.685485
     5  C   -7.229570   9.704316   1.675335 -47.074274  40.614011  17.061948
     6  C   -1.238655   1.609058   0.617111 -18.685485  17.061948  16.207682
     7  C    1.193967  -1.558421  -0.623031  18.855609 -17.249912 -16.360511
     8  C   -4.823606   6.156274  -0.017976 -12.622785   9.693487   1.545118
     9  C    3.742831  -4.820174  -0.078602  10.616625  -8.061108  -1.204512
    10  C   -0.243041   0.303099  -0.006724  -0.491165   0.352436   0.027792
    11  C    0.060072  -0.082910  -0.012036   0.293213  -0.214669  -0.015926
    12  O   -0.429366   0.447198  -0.061019  -0.136624   0.095193   0.007598
    13  H   -0.049394   0.051624  -0.005692  -0.012558   0.008196   0.000385
    14  H   -0.043753   0.044520  -0.003664  -0.008524   0.005767   0.000440
    15  H    0.055725  -0.068827   0.003934   0.077709  -0.063534  -0.014050
    16  H    0.029283  -0.040232   0.005516   0.039929  -0.025831  -0.003249
    17  H   -0.007567   0.011488   0.004206  -0.084759   0.067692   0.020542
    18  H   -0.038273   0.062081   0.007440  -0.273591   0.235150   0.072070
    19  H    0.031376  -0.045224  -0.019198   0.364333  -0.320715  -0.128929
    20  H    0.013433  -0.011550  -0.011953   0.231530  -0.177897  -0.086595
    21  H    0.001153  -0.000669  -0.003042   0.118114  -0.106527  -0.138613
    22  H    0.002272  -0.004020  -0.006259   0.198827  -0.193956  -0.176107
    23  H    0.000119  -0.000102  -0.000189   0.017274  -0.018035  -0.050806
    24  H   -0.003476   0.005188   0.002530  -0.113561   0.112623   0.125203
    25  H   -0.000360   0.000167   0.000440  -0.013617   0.013799   0.016151
    26  H    0.028922  -0.042192  -0.000831   0.105792  -0.068357  -0.005165
    27  H    0.057863  -0.069294   0.004670   0.055070  -0.038735  -0.001785
    28  H   -0.016631   0.023395   0.001515  -0.055053   0.041897   0.002301
    29  H   -0.006708   0.012366   0.008635  -0.094283   0.068109   0.004192
    30  H   -0.005593   0.008528   0.002908  -0.030172   0.019286  -0.000219
    31  H   -0.000759   0.001006  -0.000090  -0.001824   0.000845   0.000008
    32  H   -0.000087   0.000133   0.000033  -0.000579   0.000360  -0.000017
    33  H   -0.000473   0.000718   0.000126  -0.002700   0.001849  -0.000031
    34  H   -0.000172   0.000341   0.000241  -0.003772   0.002538  -0.000135
    35  H   -0.099800   0.111016  -0.021005  -0.058026   0.042687   0.003538
               7          8          9         10         11         12
     1  C    1.193967  -4.823606   3.742831  -0.243041   0.060072  -0.429366
     2  C   -1.558421   6.156274  -4.820174   0.303099  -0.082910   0.447198
     3  N   -0.623031  -0.017976  -0.078602  -0.006724  -0.012036  -0.061019
     4  C   18.855609 -12.622785  10.616625  -0.491165   0.293213  -0.136624
     5  C  -17.249912   9.693487  -8.061108   0.352436  -0.214669   0.095193
     6  C  -16.360511   1.545118  -1.204512   0.027792  -0.015926   0.007598
     7  C   16.669730  -1.595588   1.259209  -0.029679   0.024347  -0.007128
     8  C   -1.595588   8.653095  -7.972845   0.746611  -0.372864   0.126400
     9  C    1.259209  -7.972845   7.605416  -0.773842   0.384876  -0.084962
    10  C   -0.029679   0.746611  -0.773842   0.129270  -0.060320   0.005111
    11  C    0.024347  -0.372864   0.384876  -0.060320   0.061631  -0.000716
    12  O   -0.007128   0.126400  -0.084962   0.005111  -0.000716   0.029720
    13  H   -0.000313   0.013583  -0.009787   0.000633  -0.000075   0.002539
    14  H   -0.000405   0.004984  -0.002634   0.000111  -0.000007   0.002426
    15  H    0.013322  -0.012082   0.008523  -0.000141   0.000036  -0.001131
    16  H    0.003447  -0.020944   0.012782  -0.000761   0.000015  -0.000268
    17  H   -0.019607   0.023949  -0.016635  -0.000031  -0.000219   0.000032
    18  H   -0.078862   0.037886  -0.028270   0.000819  -0.000256   0.000270
    19  H    0.128200  -0.037363   0.030102  -0.001013   0.000232  -0.000066
    20  H    0.063804  -0.040443   0.029362   0.001795  -0.000045  -0.000019
    21  H    0.134396  -0.003813   0.003292  -0.000036   0.000055  -0.000000
    22  H    0.179694  -0.014181   0.012744  -0.000182   0.000298  -0.000000
    23  H    0.051967  -0.000208   0.000182  -0.000001   0.000001  -0.000000
    24  H   -0.132967   0.004189  -0.002752   0.000023  -0.000014   0.000002
    25  H   -0.016950   0.000328  -0.000143   0.000002  -0.000000   0.000000
    26  H    0.006334  -0.097304   0.081489  -0.005598   0.000450  -0.000145
    27  H    0.001682  -0.081350   0.077589  -0.007873   0.002588  -0.001290
    28  H   -0.002556   0.068946  -0.066669   0.004432  -0.006205   0.000220
    29  H   -0.006495   0.072734  -0.073323   0.013168  -0.005404   0.000019
    30  H   -0.000756   0.062593  -0.079956   0.020648  -0.010768   0.000010
    31  H   -0.000013   0.006220  -0.008101   0.002705  -0.000541   0.000004
    32  H   -0.000007   0.003218  -0.003015  -0.000012  -0.001353   0.000000
    33  H   -0.000049   0.011513  -0.012820   0.005414  -0.005986   0.000001
    34  H   -0.000119   0.008042  -0.007954   0.000827  -0.002109   0.000000
    35  H   -0.003217   0.047872  -0.033535   0.001663  -0.000361   0.006328
              13         14         15         16         17         18
     1  C   -0.049394  -0.043753   0.055725   0.029283  -0.007567  -0.038273
     2  C    0.051624   0.044520  -0.068827  -0.040232   0.011488   0.062081
     3  N   -0.005692  -0.003664   0.003934   0.005516   0.004206   0.007440
     4  C   -0.012558  -0.008524   0.077709   0.039929  -0.084759  -0.273591
     5  C    0.008196   0.005767  -0.063534  -0.025831   0.067692   0.235150
     6  C    0.000385   0.000440  -0.014050  -0.003249   0.020542   0.072070
     7  C   -0.000313  -0.000405   0.013322   0.003447  -0.019607  -0.078862
     8  C    0.013583   0.004984  -0.012082  -0.020944   0.023949   0.037886
     9  C   -0.009787  -0.002634   0.008523   0.012782  -0.016635  -0.028270
    10  C    0.000633   0.000111  -0.000141  -0.000761  -0.000031   0.000819
    11  C   -0.000075  -0.000007   0.000036   0.000015  -0.000219  -0.000256
    12  O    0.002539   0.002426  -0.001131  -0.000268   0.000032   0.000270
    13  H    0.000466   0.000282  -0.000057  -0.000038   0.000001   0.000004
    14  H    0.000282   0.000390  -0.000133  -0.000099   0.000000   0.000005
    15  H   -0.000057  -0.000133   0.000784   0.000667  -0.000019  -0.000496
    16  H   -0.000038  -0.000099   0.000667  -0.000086  -0.000002  -0.000049
    17  H    0.000001   0.000000  -0.000019  -0.000002  -0.000200   0.000644
[...]
 00026446,-0.00053016,-0.00009083,0.00003880,-0.00015787,0.00007726,0.0
 0064157,0.00108110,0.00020743,0.00562322,-0.00701733,-0.01475981,0.088
 20410,-0.07935226,-0.21450878,0.00782038,-0.00609630,-0.01507602,-0.00
 000875,0.00000171,0.00000061,-0.00000034,0.00000275,-0.00000148,-0.000
 00087,-0.00000782,-0.00000124,-0.00001155,-0.00002351,0.00000531,-0.00
 000902,-0.00002189,-0.00000496,0.00002272,0.00003983,0.00000277,-0.000
 02199,0.00003166,0.00002956,0.00008575,0.00006777,-0.00003334,-0.00014
 742,-0.00009265,-0.00015822,0.00005731,0.00027316,-0.00004428,0.000129
 65,0.00028390,0.00003214,-0.00002230,0.00007797,-0.00002249,-0.0000225
 9,0.00000152,0.00000028,-0.00003500,-0.00002225,-0.00001417,-0.0000965
 5,-0.00030982,0.00052214,-0.00005884,-0.00004357,-0.00000111,-0.002403
 75,-0.00208649,-0.00136370,0.00086473,-0.00017102,0.00030082,-0.097247
 73,0.08767540,0.23605466,-0.00003870,-0.00000887,-0.00000901,-0.000033
 01,0.00005023,-0.00008463,0.00014624,-0.00028572,0.00005700,0.00000455
 ,0.00007865,-0.00023331,0.00008066,0.00003640,-0.00007374,-0.00002633,
 -0.00002044,0.00008023,0.00003785,0.00000310,-0.00005958,0.00045821,0.
 00122792,-0.00046267,-0.01758418,0.01306019,-0.00592438,-0.19230854,0.
 11434690,-0.05790442,0.01000577,-0.00930110,0.00476965,0.00002657,-0.0
 0003605,0.00001096,0.00000860,0.00000159,0.00000425,0.00000839,-0.0000
 1144,0.00000002,-0.00001126,-0.00003321,0.00001780,0.00000239,0.000002
 28,0.00002627,-0.00005697,-0.00014431,0.00020980,-0.00002868,-0.000081
 60,0.00006897,-0.00002295,0.00000366,0.00003286,0.00002082,-0.00001813
 ,0.00003371,-0.00000765,0.00001650,0.00002573,-0.00002682,-0.00001766,
 -0.00000767,-0.00001072,0.00000075,-0.00000293,-0.00000304,-0.00000259
 ,-0.00000024,0.00000790,0.00000427,0.00000320,-0.00002048,-0.00006037,
 0.00004528,-0.00004892,-0.00057645,0.00032744,0.00113748,-0.00019430,0
 .00013432,-0.00238546,-0.00327881,-0.00274569,-0.01017842,0.00749902,-
 0.00423872,0.20959825,0.00000535,-0.00000558,0.00000335,0.00005276,-0.
 00003091,0.00005066,0.00019521,0.00027679,-0.00018856,-0.00021060,-0.0
 0001589,-0.00014699,0.00006659,0.00001559,-0.00011475,-0.00003336,-0.0
 0002206,0.00011323,0.00010066,-0.00002885,-0.00007685,-0.00047693,0.00
 128676,-0.00044496,-0.01523825,0.01026442,-0.00553079,0.11382813,-0.13
 659109,0.04514379,0.01815827,-0.01506804,0.00687345,-0.00000222,0.0000
 1193,-0.00000488,-0.00000090,0.00000195,0.00000004,-0.00000038,0.00000
 558,0.00000078,0.00001511,0.00002551,-0.00001020,0.00000040,0.00000044
 ,-0.00001421,-0.00000530,-0.00011362,0.00012393,-0.00002421,-0.0000701
 0,0.00002882,-0.00001355,0.00000005,0.00002435,-0.00000776,0.00006399,
 0.00008551,0.00002494,0.00005264,0.00005609,-0.00004051,-0.00000033,-0
 .00000964,-0.00000702,0.00000462,-0.00000214,-0.00000954,-0.00001021,-
 0.00000314,0.00001061,0.00000808,0.00000078,0.00002057,0.00001420,0.00
 008501,0.00035706,-0.00010207,-0.00003718,0.00068232,0.00073659,0.0005
 6913,-0.00261576,-0.00157058,-0.00146441,0.00866324,-0.00737576,0.0038
 0416,-0.12117020,0.14989530,-0.00001582,0.00000517,-0.00000471,-0.0000
 0450,0.00001981,-0.00001148,0.00022591,-0.00008157,-0.00006884,-0.0001
 0459,0.00009177,-0.00022231,0.00007562,0.00007884,-0.00033871,-0.00015
 196,-0.00030668,0.00028553,0.00028100,-0.00013729,-0.00021141,0.000549
 73,0.00073469,0.00019685,-0.01437706,0.01022356,-0.00599766,-0.0567695
 5,0.04466930,-0.07213091,-0.01411077,0.01175150,-0.00608638,0.00002411
 ,-0.00001914,-0.00001305,-0.00000242,-0.00000308,0.00000011,0.00000389
 ,-0.00000410,-0.00000206,-0.00001023,-0.00001209,0.00000601,0.00000683
 ,0.00000747,-0.00000103,-0.00005571,-0.00018588,0.00015071,0.00002613,
 -0.00009508,-0.00000380,-0.00000356,0.00000992,0.00006373,-0.00007307,
 0.00014461,0.00025436,0.00008177,0.00025024,0.00017710,-0.00008938,0.0
 0006881,-0.00001976,-0.00003965,0.00005009,-0.00001766,-0.00004116,-0.
 00002884,-0.00000887,0.00002661,0.00002047,-0.00000235,-0.00006053,-0.
 00007441,0.00001947,0.00016528,-0.00023237,0.00029686,0.00055886,0.000
 55684,0.00039130,-0.00204142,-0.00258478,-0.00089062,0.01946386,-0.015
 33849,0.00871408,0.06516100,-0.05140716,0.07589576,-0.00001250,0.00001
 041,-0.00000196,-0.00010467,0.00003236,-0.00011628,-0.00014735,-0.0004
 2023,0.00023193,0.00000969,-0.00001159,-0.00002169,0.00000197,0.000046
 33,-0.00017700,-0.00005592,-0.00011013,0.00016555,0.00013152,-0.000050
 76,-0.00012062,-0.00020919,-0.00009700,-0.00107054,0.00009507,-0.00199
 640,0.00261294,-0.00758421,-0.00379323,-0.00641302,-0.16803997,-0.0956
 5849,-0.09225491,0.00001733,-0.00003795,-0.00000291,0.00000076,-0.0000
 0007,-0.00000172,0.00000417,-0.00001135,-0.00000175,-0.00003310,-0.000
 04910,0.00002365,0.00000127,0.00000208,0.00001820,-0.00001020,-0.00008
 689,0.00004620,-0.00001202,-0.00003019,-0.00002251,-0.00000958,-0.0000
 0231,0.00003474,-0.00001612,0.00008921,0.00013879,0.00003385,0.0001018
 9,0.00009164,-0.00006012,0.00000555,-0.00001291,-0.00002020,0.00001957
 ,-0.00000763,-0.00001880,-0.00001385,-0.00000356,0.00001840,0.00001332
 ,0.00000130,-0.00003883,0.00004573,0.00005080,0.00002615,-0.00005149,0
 .00001833,0.00003847,-0.00008147,-0.00018917,0.00042792,0.00001579,0.0
 0029403,0.00001729,0.00037756,-0.00008922,0.00066364,0.00004556,0.0002
 2903,0.17820237,-0.00002467,0.00000479,0.00000921,-0.00016757,0.000044
 70,-0.00022304,-0.00031074,-0.00067440,0.00049063,0.00010127,-0.000062
 99,0.00005882,-0.00005345,0.00000286,-0.00011019,-0.00009568,-0.000309
 90,0.00002733,0.00006495,-0.00006588,-0.00001468,-0.00101317,0.0000723
 5,-0.00154395,-0.00128325,-0.00303353,0.00494941,-0.01556131,-0.012124
 19,-0.01453296,-0.09492931,-0.12360368,-0.07346274,0.00002383,-0.00005
 745,-0.00000100,0.00000335,0.00000309,-0.00000201,0.00000683,-0.000020
 77,-0.00000286,-0.00004726,-0.00009200,0.00003781,0.00000023,0.0000003
 4,0.00003509,0.00000129,-0.00001396,0.00002751,-0.00003690,-0.00000890
 ,-0.00000912,0.00002339,0.00001930,0.00001451,-0.00002766,0.00002311,0
 .00002704,0.00003312,0.00016688,0.00003677,0.00001765,0.00010911,0.000
 00405,-0.00002565,0.00003968,-0.00001473,-0.00001785,-0.00000781,-0.00
 000151,-0.00000540,-0.00000297,-0.00000650,-0.00005059,-0.00003866,0.0
 0008828,0.00009383,-0.00002582,-0.00003743,0.00030649,0.00013733,0.000
 13263,0.00002666,0.00002897,-0.00006524,0.00038142,0.00096990,0.000010
 26,0.00069842,0.00049913,-0.00056564,0.10690511,0.13245291,0.00001303,
 -0.00000428,-0.00001110,0.00010353,-0.00002349,0.00012188,0.00019027,0
 .00035726,-0.00026669,-0.00011957,0.00009432,-0.00005863,-0.00008927,-
 0.00007349,-0.00014377,-0.00009696,-0.00032607,0.00008012,0.00012009,-
 0.00010191,-0.00006676,0.00040263,0.00040054,0.00085097,0.00090158,0.0
 0275511,-0.00218117,0.01441300,0.01107953,0.01107758,-0.09333795,-0.07
 497093,-0.11946931,-0.00000786,0.00002460,0.00000074,-0.00000115,-0.00
 000065,0.00000166,-0.00000257,0.00001008,0.00000135,0.00002584,0.00005
 389,-0.00002094,0.00000018,0.00000114,-0.00002163,-0.00001717,-0.00006
 502,0.00000622,0.00004174,-0.00000927,-0.00001448,0.00001978,0.0000123
 8,0.00002232,-0.00000605,0.00012972,0.00009927,0.00006303,0.00018549,0
 .00008787,-0.00001102,0.00009630,0.00000072,-0.00002670,0.00004790,-0.
 00001525,-0.00002656,-0.00001409,-0.00000521,0.00000451,0.00000598,-0.
 00000802,0.00001660,-0.00006405,-0.00001696,-0.00002107,0.00002299,-0.
 00000870,-0.00002130,0.00015572,0.00021469,-0.00000402,-0.00017075,-0.
 00012321,-0.00018096,-0.00080083,0.00079194,-0.00037204,-0.00076228,0.
 00063072,0.10043578,0.07887629,0.12556735,0.00000092,-0.00000037,0.000
 01125,0.00000064,0.00000913,-0.00002290,-0.00001527,-0.00008041,-0.000
 01847,0.00003588,-0.00004658,0.00002848,0.00002846,0.00004658,0.000100
 20,0.00001439,0.00003046,-0.00010245,-0.00006783,0.00002553,0.00006714
 ,0.00004122,-0.00003908,-0.00005181,0.00021427,0.00064755,0.00050498,-
 0.00550333,0.00446014,0.00859697,-0.10041077,0.04275943,0.09606913,0.0
 0000370,-0.00000509,-0.00000381,-0.00000131,0.00000085,-0.00000109,-0.
 00000022,-0.00000235,-0.00000100,-0.00000269,-0.00000480,0.00000197,0.
 00000151,0.00000134,0.00000471,-0.00000126,0.00003687,-0.00001447,-0.0
 0001757,0.00001039,0.00001382,0.00001094,0.00000701,-0.00002105,-0.000
 00323,-0.00008287,-0.00007072,-0.00002312,-0.00004094,-0.00004712,0.00
 002790,0.00000382,0.00000428,0.00000778,-0.00000742,0.00000169,0.00001
 014,0.00000628,0.00000232,-0.00000703,-0.00000555,0.00000064,0.0000221
 1,-0.00003196,-0.00010673,-0.00000485,-0.00000428,0.00000846,-0.000138
 11,-0.00024681,-0.00014455,-0.00001447,0.00006985,-0.00007615,0.000005
 98,-0.00217623,0.00158563,0.00053201,-0.00021782,-0.00051542,0.0110384
 0,-0.00774297,-0.01827779,0.10390638,-0.00000124,0.00000002,-0.0000004
 1,0.00002314,0.00001109,0.00000486,0.00006797,-0.00002824,-0.00012429,
 0.00000971,0.00001501,-0.00001292,0.00001293,0.00002642,0.00004721,0.0
 0002746,0.00004308,-0.00003462,0.00000317,0.00000969,0.00002541,0.0000
 6151,0.00012356,0.00029300,0.00047802,0.00151024,0.00069966,-0.0124024
 8,0.00911510,0.02165344,0.04331058,-0.08214320,-0.08018574,0.00000477,
 0.00000141,0.00000008,-0.00000047,0.00000131,0.00000013,0.00000012,0.0
 0000056,-0.00000056,0.00000192,0.00000919,0.00000018,0.00000202,0.0000
 0413,0.00000383,-0.00000478,-0.00000254,0.00000391,-0.00000554,0.00000
 381,0.00000783,-0.00000582,-0.00000454,-0.00000864,-0.00001810,-0.0000
 2634,-0.00003049,0.00000591,-0.00000071,-0.00001117,0.00000445,0.00000
 346,0.00000742,0.00000327,-0.00000168,0.00000161,0.00000115,-0.0000000
 8,-0.00000051,-0.00000343,-0.00000240,0.00000114,-0.00001588,-0.000143
 98,-0.00014513,0.00001139,-0.00000080,0.00001964,0.00025602,-0.0001315
 8,-0.00032205,-0.00007428,0.00002643,-0.00010504,-0.00223475,-0.003339
 61,0.00298723,0.00048555,0.00118669,-0.00073160,0.00836661,-0.00628916
 ,-0.01231017,-0.04506771,0.08698813,0.00000532,-0.00000270,-0.00000180
 ,0.00001698,-0.00002309,0.00002399,0.00004730,0.00014753,-0.00000462,0
 .00002380,-0.00000406,0.00000049,0.00004347,0.00000770,0.00012273,0.00
 007158,0.00022982,-0.00007603,-0.00009408,0.00006386,0.00005589,-0.000
 13737,0.00001454,0.00033931,-0.00075443,-0.00077791,0.00073088,0.00814
 166,-0.00723295,-0.01541924,0.09598835,-0.07902339,-0.22523177,-0.0000
 1349,0.00001736,0.00000670,0.00000046,0.00000006,0.00000032,-0.0000016
 7,0.00000342,0.00000155,0.00000967,0.00001113,-0.00000792,-0.00000022,
 0.00000261,-0.00000643,0.00000362,0.00004676,-0.00002510,-0.00000070,0
 .00001502,0.00001139,-0.00001301,-0.00001013,-0.00001803,0.00001175,-0
 .00007203,-0.00008024,-0.00004097,-0.00013557,-0.00006080,0.00001599,-
 0.00006491,0.00000202,0.00002283,-0.00003319,0.00001132,0.00001945,0.0
 0001212,0.00000392,-0.00000505,-0.00000473,0.00000451,-0.00006926,-0.0
 0009198,0.00007951,-0.00002307,0.00001484,-0.00002233,0.00036107,0.000
 31936,0.00040040,-0.00003725,0.00019649,-0.00003429,0.00142446,0.00367
 621,-0.00150568,-0.00061773,-0.00021755,0.00041747,0.00760840,-0.00498
 008,-0.01234088,-0.10762288,0.08425167,0.24391752,-0.00000436,-0.00000
 799,0.00001704,0.00001296,0.00000727,-0.00001914,-0.00009481,0.0001388
 3,-0.00006468,0.00022694,-0.00008232,0.00008377,0.00019349,-0.00001322
 ,0.00045029,0.00042107,0.00123667,-0.00015174,-0.00036970,0.00038114,0
 .00015541,0.00054173,-0.00020014,-0.00001356,0.00153266,-0.00053498,0.
 00036912,0.00960464,-0.00845514,0.00274786,-0.19230342,0.11889929,-0.0
 5544724,-0.00000678,0.00000581,0.00000688,-0.00000151,0.00000692,-0.00
 000112,-0.00000250,-0.00000243,-0.00000090,0.00000085,0.00000338,-0.00
 000172,0.00000309,0.00000078,0.00000478,0.00003421,0.00018866,-0.00003
 556,-0.00005516,0.00002845,0.00002458,-0.00010801,-0.00008685,-0.00006
 057,0.00016088,-0.00012936,-0.00031756,-0.00017369,-0.00068778,-0.0002
 9419,0.00001190,-0.00037567,0.00001290,0.00009753,-0.00017823,0.000055
 74,0.00009088,0.00004017,0.00000866,-0.00001168,-0.00001456,0.00002992
 ,-0.00002563,0.00010129,0.00002031,-0.00017570,-0.00006896,0.00003131,
 0.00003697,0.00001481,-0.00010596,-0.00040465,0.00050495,0.00016417,0.
 00005130,0.00078420,-0.00023372,0.00008275,-0.00215845,0.00160802,-0.0
 1433580,0.01273501,-0.00414504,-0.00968677,0.00670128,-0.00440058,0.20
 465449,0.00000200,-0.00000726,0.00001650,0.00000987,0.00001567,-0.0000
 2902,-0.00007660,0.00001244,0.00006085,0.00003897,-0.00005025,0.000054
 90,-0.00005143,-0.00001574,0.00012145,-0.00009209,-0.00024009,-0.00012
 223,-0.00011067,-0.00001810,0.00009728,-0.00001264,0.00012559,0.000012
 05,0.00125317,0.00063869,0.00020904,0.01815556,-0.01566941,0.00689325,
 0.11855704,-0.14422802,0.04403078,-0.00000610,-0.00000024,-0.00000121,
 -0.00000227,0.00000308,-0.00000195,-0.00000161,-0.00000397,-0.00000135
 ,-0.00000018,-0.00000683,0.00000044,-0.00000226,-0.00000381,0.00001074
 ,0.00001217,0.00007375,-0.00002332,-0.00002593,0.00003439,0.00002240,0
 .00003582,0.00002345,-0.00003025,-0.00001031,-0.00010248,-0.00015174,-
 0.00000669,0.00005826,-0.00006546,0.00009245,0.00011290,0.00001642,-0.
 00000130,0.00001933,-0.00000680,0.00000568,0.00001024,0.00000430,-0.00
 002333,-0.00001636,-0.00000856,0.00001840,-0.00005579,-0.00000957,-0.0
 0007203,0.00007043,-0.00006843,-0.00005851,-0.00001686,-0.00008603,-0.
 00063383,-0.00017816,-0.00031076,0.00002547,0.00103719,-0.00057701,-0.
 00231349,-0.00333169,0.00310905,-0.01361429,0.01179559,-0.00458465,0.0
 0768484,-0.00696246,0.00366071,-0.12877960,0.15687254,-0.00000294,-0.0
 0000604,0.00000819,0.00001280,-0.00002598,-0.00000102,0.00005895,-0.00
 001616,0.00006719,0.00007530,0.00001335,0.00003918,-0.00003029,0.00001
 902,0.00017479,-0.00005440,-0.00022016,-0.00022887,-0.00008006,-0.0000
 3713,0.00015929,0.00005008,-0.00022441,0.00002343,-0.00061310,-0.00084
 033,0.00047157,-0.01438988,0.01211014,-0.00618514,-0.05474393,0.043864
 72,-0.06836236,-0.00000578,0.00001289,0.00000442,0.00000142,0.00000106
 ,0.00000187,-0.00000036,0.00000076,0.00000109,0.00000708,0.00000504,-0
 .00000331,-0.00000179,-0.00000135,-0.00000026,-0.00000237,0.00007355,-
 0.00004068,-0.00000671,0.00003762,0.00002813,0.00004611,0.00002995,-0.
 00004141,-0.00004630,-0.00016517,-0.00016191,-0.00000673,0.00006929,-0
 .00007400,0.00009695,0.00012676,0.00001879,-0.00000285,0.00003005,-0.0
 0000930,0.00000237,0.00001030,0.00000283,-0.00002825,-0.00001826,-0.00
 000995,0.00003854,-0.00006993,-0.00008960,-0.00002085,-0.00008847,0.00
 005446,0.00006817,0.00003540,-0.00001365,0.00030053,-0.00001802,0.0002
 0678,-0.00052613,-0.00066173,0.00037987,0.00171799,0.00347783,-0.00147
 639,-0.01151356,0.01071740,-0.00476551,0.02008997,-0.01598356,0.008715
 55,0.05950430,-0.05224763,0.07111076,0.00140778,-0.01065696,0.00753594
 ,-0.00121332,-0.00036858,0.00486196,-0.00245029,-0.00400361,-0.0024013
 6,-0.00166623,0.00089026,-0.00091985,0.00040400,-0.00029272,0.00024451
 ,0.00004042,-0.00001799,-0.00017715,0.00000045,-0.00002715,-0.00002009
 ,0.00246191,-0.00010838,-0.00024075,-0.00009292,-0.00007497,-0.0004626
 7,-0.00000085,-0.00009844,0.00015228,-0.00004426,-0.00003303,-0.000061
 42,-0.01238610,0.03847613,-0.01063884,0.00011894,0.00037262,-0.0007991
 6,-0.00147018,0.00040255,0.00442089,-0.00033759,0.00014996,-0.00004966
 ,0.00024754,-0.00047404,-0.00082722,0.00013451,-0.00026514,0.00015141,
 0.00009288,0.00000851,0.00005995,0.00000042,-0.00001133,-0.00002412,0.
 00001749,0.00010031,0.00002479,0.00008265,-0.00008714,0.00005802,-0.00
 002950,-0.00004259,0.00002588,0.00003122,-0.00000703,0.00001134,-0.000
 00471,-0.00000198,-0.00001041,0.00000875,0.00001179,-0.00000374,-0.000
 46640,-0.00067073,-0.00074914,-0.00028462,-0.00008231,-0.00025314,-0.0
 0002796,0.00001830,0.00009511,-0.00000846,0.00004141,0.00004150,-0.000
 01915,0.00000569,0.00001581,-0.00002993,0.00000597,-0.00002085,-0.0000
 1967,-0.00002942,0.00001346,-0.00000479,-0.00000449,0.00001558,0.00000
 184,0.00000371,0.00000571,0.01550610,-0.00279143,0.00704183,0.00308439
 ,0.00438189,-0.00004143,-0.00722161,-0.00342516,0.00633536,0.00139687,
 0.00197109,-0.00066554,0.00426031,-0.00110738,0.00080004,-0.00105930,-
 0.00015103,0.00013938,0.00059834,0.00003547,0.00005596,0.00000612,-0.0
 0322046,-0.00252857,-0.00202663,0.00018388,0.00011158,0.00057535,-0.00
 006541,0.00018349,-0.00025152,0.00007915,0.00005384,0.00011801,0.02604
 317,-0.39802249,0.18387440,-0.00024404,-0.00084522,-0.00244393,0.00194
 563,0.00032691,-0.00152613,-0.00038318,-0.00016812,0.00028825,-0.00023
 353,-0.00121451,0.00157070,-0.00014020,0.00028438,-0.00025908,-0.00039
 696,-0.00003270,-0.00018171,-0.00002662,-0.00003708,0.00012186,-0.0000
 1876,-0.00016202,-0.00002262,-0.00021720,0.00021425,-0.00012521,0.0000
 5221,0.00005716,-0.00005194,-0.00006757,0.00000062,-0.00002627,0.00000
 271,-0.00000736,0.00000723,-0.00002057,-0.00002039,0.00001214,0.000442
 42,0.00096843,0.00127648,0.00037651,0.00005201,0.00014039,-0.00002571,
 0.00005227,0.00001554,0.00002864,-0.00003517,-0.00006125,0.00004266,0.
 00001464,0.00001269,0.00003935,-0.00001349,0.00001607,0.00003972,0.000
 06203,-0.00002731,0.00000313,-0.00000204,-0.00001692,-0.00000323,0.000
 00397,-0.00001078,-0.02312918,0.38703800,0.00296893,0.03740975,-0.0333
 1677,0.00291438,0.00217378,-0.00214111,-0.00314340,0.00264952,0.000073
 46,0.00073842,-0.00001427,0.00196176,-0.00061466,0.00041840,-0.0005160
 4,-0.00005395,0.00007345,0.00026266,0.00001274,0.00003008,0.00000291,-
 0.00094482,-0.00149006,-0.00153584,-0.00003560,0.00016706,0.00039257,-
 0.00000433,0.00008145,-0.00016397,0.00004001,0.00003302,0.00006827,-0.
 00152880,0.14114251,-0.11426214,0.00013671,0.00038040,-0.00067775,0.00
 025832,-0.00193503,-0.00521583,0.00004003,-0.00025320,-0.00003560,-0.0
 0055060,0.00091087,0.00027559,-0.00006446,0.00022192,-0.00013961,-0.00
 016683,-0.00005894,-0.00003552,0.00001125,-0.00001596,0.00001045,0.000
 00551,-0.00006735,-0.00000527,-0.00010394,0.00011124,-0.00004473,0.000
 01245,0.00003373,-0.00002464,-0.00003247,0.00000010,-0.00001279,-0.000
 00014,-0.00000818,0.00000414,-0.00000463,-0.00000899,0.00000171,0.0001
 0490,0.00031599,0.00035601,-0.00003266,-0.00025320,-0.00016971,0.00003
 433,-0.00003267,-0.00004493,0.00003251,0.00001423,-0.00005028,0.000010
 41,0.00000341,-0.00000052,0.00001029,-0.00000522,0.00000795,0.00001966
 ,0.00003064,-0.00001714,0.00000675,-0.00000133,-0.00001031,-0.00000176
 ,0.00000578,-0.00000483,-0.00007453,-0.18206293,0.15500784\\-0.0000021
 6,-0.00000105,-0.00000700,0.00000528,-0.00000076,-0.00000381,0.0000038
 3,-0.00000170,0.00000510,-0.00000311,0.00001326,0.00001700,-0.00000928
 ,-0.00003156,-0.00001326,-0.00000356,0.00000200,0.00001379,0.00000675,
 0.00000537,0.00000521,0.00000016,-0.00000282,-0.00000591,0.00000451,-0
 .00000483,0.00000620,0.00000085,-0.00000141,-0.00000339,-0.00000198,-0
 .00000573,0.00000575,-0.00000180,0.00001324,0.00000156,-0.00000011,-0.
 00000233,0.00000046,-0.00000260,-0.00000176,0.00000013,-0.00000061,-0.
 00000292,-0.00000547,-0.00000271,-0.00000319,0.00000084,-0.00000076,0.
 00000557,-0.00000019,-0.00000565,0.00000156,-0.00000516,-0.00000026,0.
 00000311,-0.00000455,0.00000982,0.00000935,-0.00000448,0.00000287,0.00
 000128,-0.00000306,0.00000401,0.00000488,0.00000164,0.00000056,0.00000
 275,0.00000039,0.00000334,-0.00000196,-0.00000322,-0.00000300,-0.00000
 019,-0.00000085,0.00000299,-0.00000241,-0.00000289,-0.00000149,-0.0000
 0122,0.00000202,-0.00000112,0.00000210,-0.00000077,-0.00000776,0.00000
 685,-0.00000048,-0.00000129,-0.00000108,0.00000271,0.00000128,-0.00000
 093,0.00000353,0.00000218,0.00000075,0.00000390,0.00000115,0.00000136,
 0.00000198,0.00000110,0.00000129,0.00000173,-0.00000144,-0.00000689,-0
 .00000945\\\@
 The archive entry for this job was punched.


 One man practicing sportsmanship is far better than 50 preaching it.
 -- Knute K. Rockne
 Job cpu time:       0 days  3 hours 18 minutes 15.2 seconds.
 Elapsed time:       0 days  0 hours 10 minutes  7.6 seconds.
 File lengths (MBytes):  RWF=    872 Int=      0 D2E=      0 Chk=     24 Scr=      1
 Normal termination of Gaussian 16 at Mon Nov  7 22:09:46 2022.
