 Entering Gaussian System, Link 0=g16
 Input=BIH-conformers-0.gau
 Output=BIH-conformers-0.log
 Initial command:
 /apps/gaussian/g16c01/g16/l1.exe "/jobfs/63305823.gadi-pbs/Gau-1278580.inp" -scrdir="/jobfs/63305823.gadi-pbs/"
 Default is to use a total of  20 processors:
                               20 via shared-memory
                                1 via Linda
 Entering Link 1 = /apps/gaussian/g16c01/g16/l1.exe PID=   1278581.
  
 Copyright (c) 1988-2019, Gaussian, Inc.  All Rights Reserved.
  
 This is part of the Gaussian(R) 16 program.  It is based on
 the Gaussian(R) 09 system (copyright 2009, Gaussian, Inc.),
 the Gaussian(R) 03 system (copyright 2003, Gaussian, Inc.),
 the Gaussian(R) 98 system (copyright 1998, Gaussian, Inc.),
 the Gaussian(R) 94 system (copyright 1995, Gaussian, Inc.),
 the Gaussian 92(TM) system (copyright 1992, Gaussian, Inc.),
 the Gaussian 90(TM) system (copyright 1990, Gaussian, Inc.),
 the Gaussian 88(TM) system (copyright 1988, Gaussian, Inc.),
 the Gaussian 86(TM) system (copyright 1986, Carnegie Mellon
 University), and the Gaussian 82(TM) system (copyright 1983,
 Carnegie Mellon University). Gaussian is a federally registered
 trademark of Gaussian, Inc.
  
 This software contains proprietary and confidential information,
 including trade secrets, belonging to Gaussian, Inc.
  
 This software is provided under written license and may be
 used, copied, transmitted, or stored only in accord with that
 written license.
  
 The following legend is applicable only to US Government
 contracts under FAR:
  
                    RESTRICTED RIGHTS LEGEND
  
 Use, reproduction and disclosure by the US Government is
 subject to restrictions as set forth in subparagraphs (a)
 and (c) of the Commercial Computer Software - Restricted
 Rights clause in FAR 52.227-19.
  
 Gaussian, Inc.
 340 Quinnipiac St., Bldg. 40, Wallingford CT 06492
  
  
 ---------------------------------------------------------------
 Warning -- This program may not be used in any manner that
 competes with the business of Gaussian, Inc. or will provide
 assistance to any competitor of Gaussian, Inc.  The licensee
 of this program is prohibited from giving any competitor of
 Gaussian, Inc. access to this program.  By using this program,
 the user acknowledges that Gaussian, Inc. is engaged in the
 business of creating and licensing software in the field of
 computational chemistry and represents and warrants to the
 licensee that it is not a competitor of Gaussian, Inc. and that
 it will not use this program in any manner prohibited above.
 ---------------------------------------------------------------
  

 Cite this work as:
 Gaussian 16, Revision C.01,
 M. J. Frisch, G. W. Trucks, H. B. Schlegel, G. E. Scuseria, 
 M. A. Robb, J. R. Cheeseman, G. Scalmani, V. Barone, 
 G. A. Petersson, H. Nakatsuji, X. Li, M. Caricato, A. V. Marenich, 
 J. Bloino, B. G. Janesko, R. Gomperts, B. Mennucci, H. P. Hratchian, 
 J. V. Ortiz, A. F. Izmaylov, J. L. Sonnenberg, D. Williams-Young, 
 F. Ding, F. Lipparini, F. Egidi, J. Goings, B. Peng, A. Petrone, 
 T. Henderson, D. Ranasinghe, V. G. Zakrzewski, J. Gao, N. Rega, 
 G. Zheng, W. Liang, M. Hada, M. Ehara, K. Toyota, R. Fukuda, 
 J. Hasegawa, M. Ishida, T. Nakajima, Y. Honda, O. Kitao, H. Nakai, 
 T. Vreven, K. Throssell, J. A. Montgomery, Jr., J. E. Peralta, 
 F. Ogliaro, M. J. Bearpark, J. J. Heyd, E. N. Brothers, K. N. Kudin, 
 V. N. Staroverov, T. A. Keith, R. Kobayashi, J. Normand, 
 K. Raghavachari, A. P. Rendell, J. C. Burant, S. S. Iyengar, 
 J. Tomasi, M. Cossi, J. M. Millam, M. Klene, C. Adamo, R. Cammi, 
 J. W. Ochterski, R. L. Martin, K. Morokuma, O. Farkas, 
 J. B. Foresman, and D. J. Fox, Gaussian, Inc., Wallingford CT, 2019.
 
 ******************************************
 Gaussian 16:  ES64L-G16RevC.01  3-Jul-2019
                11-Nov-2022 
 ******************************************
 %chk=BIH-conformers-0.chk
 Default route: Maxdisk=0MB
 ----------------------------------------------------------------------
 # opt(maxcycles=1000) freq=Noraman scf(maxcycle=500) uwb97xd/6-31+G(d,
 p) scrf=(smd,solvent=acetonitrile)
 ----------------------------------------------------------------------
 1/6=1000,18=20,19=15,26=3,38=1/1,3;
 2/9=110,12=2,17=6,18=5,40=1/2;
 3/5=1,6=6,7=111,11=2,25=1,30=1,70=32201,71=1,72=2,74=-58,116=2/1,2,3;
 4//1;
 5/5=2,7=500,38=5,53=2/2;
 6/7=2,8=2,9=2,10=2,28=1/1;
 7//1,2,3,16;
 1/6=1000,18=20,19=15,26=3/3(2);
 2/9=110/2;
 99//99;
 2/9=110/2;
 3/5=1,6=6,7=111,11=2,25=1,30=1,70=32205,71=1,72=2,74=-58,116=2/1,2,3;
 4/5=5,16=3,69=1/1;
 5/5=2,7=500,38=5,53=2/2;
 7//1,2,3,16;
 1/6=1000,18=20,19=15,26=3/3(-5);
 2/9=110/2;
 6/7=2,8=2,9=2,10=2,19=2,28=1/1;
 99/9=1/99;
 ----------
 OPT + Freq
 ----------
 Symbolic Z-matrix:
 Charge =  0 Multiplicity = 1
 C                    -0.30799   0.00995  -0.5956 
 N                     0.45029   1.14731  -0.06392 
 C                     1.77065   0.70429   0.07051 
 C                     1.76821  -0.70371   0.05423 
 N                     0.4486   -1.1406   -0.08696 
 C                     2.94364  -1.42099   0.19409 
 C                     4.14192  -0.70112   0.36544 
 C                     4.14433   0.6889    0.38192 
 C                     2.94842   1.41521   0.22703 
 C                    -1.75696   0.00594  -0.15871 
 C                    -2.08523   0.02547   1.20024 
 C                    -3.41796   0.01777   1.6006 
 C                    -4.43698  -0.01271   0.64426 
 C                    -4.11521  -0.03226  -0.71082 
 C                    -2.77665  -0.02313  -1.10891 
 C                     0.18281  -2.41597  -0.72609 
 C                     0.18816   2.43361  -0.67493 
 H                    -0.27389   0.01974  -1.70794 
 H                     2.94751  -2.5064    0.16818 
 H                     5.07688  -1.24566   0.47402 
 H                     5.07836   1.22691   0.50205 
 H                     2.95401   2.50074   0.2241 
 H                    -1.29124   0.04834   1.94178 
 H                    -3.66522   0.0332    2.6599 
 H                    -5.47679  -0.01837   0.95773 
 H                    -4.90234  -0.05516  -1.45897 
 H                    -2.5234   -0.03891  -2.16629 
 H                     0.69388  -3.21317  -0.18395 
 H                     0.5136   -2.42794  -1.77677 
 H                    -0.89188  -2.61903  -0.69265 
 H                    -0.88505   2.63843  -0.63689 
 H                     0.51917   2.46728  -1.72539 
 H                     0.69971   3.22081  -0.11674 
 

 GradGradGradGradGradGradGradGradGradGradGradGradGradGradGradGradGradGrad
 Berny optimization.
 Initialization pass.
                           ----------------------------
                           !    Initial Parameters    !
                           ! (Angstroms and Degrees)  !
 --------------------------                            --------------------------
 ! Name  Definition              Value          Derivative Info.                !
 --------------------------------------------------------------------------------
 ! R1    R(1,2)                  1.4667         estimate D2E/DX2                !
 ! R2    R(1,5)                  1.468          estimate D2E/DX2                !
 ! R3    R(1,10)                 1.5134         estimate D2E/DX2                !
 ! R4    R(1,18)                 1.1129         estimate D2E/DX2                !
 ! R5    R(2,3)                  1.3992         estimate D2E/DX2                !
 ! R6    R(2,17)                 1.448          estimate D2E/DX2                !
 ! R7    R(3,4)                  1.4081         estimate D2E/DX2                !
 ! R8    R(3,9)                  1.3846         estimate D2E/DX2                !
 ! R9    R(4,5)                  1.3972         estimate D2E/DX2                !
 ! R10   R(4,6)                  1.3841         estimate D2E/DX2                !
 ! R11   R(5,16)                 1.4511         estimate D2E/DX2                !
 ! R12   R(6,7)                  1.4084         estimate D2E/DX2                !
 ! R13   R(6,19)                 1.0857         estimate D2E/DX2                !
 ! R14   R(7,8)                  1.3901         estimate D2E/DX2                !
 ! R15   R(7,20)                 1.0874         estimate D2E/DX2                !
 ! R16   R(8,9)                  1.4077         estimate D2E/DX2                !
 ! R17   R(8,21)                 1.0846         estimate D2E/DX2                !
 ! R18   R(9,22)                 1.0856         estimate D2E/DX2                !
 ! R19   R(10,11)                1.3982         estimate D2E/DX2                !
 ! R20   R(10,15)                1.3941         estimate D2E/DX2                !
 ! R21   R(11,12)                1.3916         estimate D2E/DX2                !
 ! R22   R(11,23)                1.0867         estimate D2E/DX2                !
 ! R23   R(12,13)                1.3978         estimate D2E/DX2                !
 ! R24   R(12,24)                1.0879         estimate D2E/DX2                !
 ! R25   R(13,14)                1.3929         estimate D2E/DX2                !
 ! R26   R(13,25)                1.0861         estimate D2E/DX2                !
 ! R27   R(14,15)                1.3965         estimate D2E/DX2                !
 ! R28   R(14,26)                1.0862         estimate D2E/DX2                !
 ! R29   R(15,27)                1.0874         estimate D2E/DX2                !
 ! R30   R(16,28)                1.0912         estimate D2E/DX2                !
 ! R31   R(16,29)                1.1016         estimate D2E/DX2                !
 ! R32   R(16,30)                1.0942         estimate D2E/DX2                !
 ! R33   R(17,31)                1.0932         estimate D2E/DX2                !
 ! R34   R(17,32)                1.1019         estimate D2E/DX2                !
 ! R35   R(17,33)                1.0922         estimate D2E/DX2                !
 ! A1    A(2,1,5)              102.4577         estimate D2E/DX2                !
 ! A2    A(2,1,10)             113.1031         estimate D2E/DX2                !
 ! A3    A(2,1,18)             109.8555         estimate D2E/DX2                !
 ! A4    A(5,1,10)             113.0388         estimate D2E/DX2                !
 ! A5    A(5,1,18)             109.7202         estimate D2E/DX2                !
 ! A6    A(10,1,18)            108.535          estimate D2E/DX2                !
 ! A7    A(1,2,3)              106.0909         estimate D2E/DX2                !
 ! A8    A(1,2,17)             116.2516         estimate D2E/DX2                !
 ! A9    A(3,2,17)             119.515          estimate D2E/DX2                !
 ! A10   A(2,3,4)              108.2921         estimate D2E/DX2                !
 ! A11   A(2,3,9)              130.6177         estimate D2E/DX2                !
 ! A12   A(4,3,9)              121.0777         estimate D2E/DX2                !
 ! A13   A(3,4,5)              108.3893         estimate D2E/DX2                !
 ! A14   A(3,4,6)              121.0351         estimate D2E/DX2                !
 ! A15   A(5,4,6)              130.5602         estimate D2E/DX2                !
 ! A16   A(1,5,4)              106.0641         estimate D2E/DX2                !
 ! A17   A(1,5,16)             116.2215         estimate D2E/DX2                !
 ! A18   A(4,5,16)             119.493          estimate D2E/DX2                !
 ! A19   A(4,6,7)              118.0326         estimate D2E/DX2                !
 ! A20   A(4,6,19)             121.2453         estimate D2E/DX2                !
 ! A21   A(7,6,19)             120.7213         estimate D2E/DX2                !
 ! A22   A(6,7,8)              120.9322         estimate D2E/DX2                !
 ! A23   A(6,7,20)             119.1925         estimate D2E/DX2                !
 ! A24   A(8,7,20)             119.8712         estimate D2E/DX2                !
 ! A25   A(7,8,9)              120.8723         estimate D2E/DX2                !
 ! A26   A(7,8,21)             119.9226         estimate D2E/DX2                !
 ! A27   A(9,8,21)             119.2001         estimate D2E/DX2                !
 ! A28   A(3,9,8)              118.0452         estimate D2E/DX2                !
 ! A29   A(3,9,22)             121.1658         estimate D2E/DX2                !
 ! A30   A(8,9,22)             120.7877         estimate D2E/DX2                !
 ! A31   A(1,10,11)            120.3535         estimate D2E/DX2                !
 ! A32   A(1,10,15)            120.2378         estimate D2E/DX2                !
 ! A33   A(11,10,15)           119.4081         estimate D2E/DX2                !
 ! A34   A(10,11,12)           120.2922         estimate D2E/DX2                !
 ! A35   A(10,11,23)           119.4722         estimate D2E/DX2                !
 ! A36   A(12,11,23)           120.2355         estimate D2E/DX2                !
 ! A37   A(11,12,13)           120.0963         estimate D2E/DX2                !
 ! A38   A(11,12,24)           119.8504         estimate D2E/DX2                !
 ! A39   A(13,12,24)           120.0532         estimate D2E/DX2                !
 ! A40   A(12,13,14)           119.8344         estimate D2E/DX2                !
 ! A41   A(12,13,25)           120.0399         estimate D2E/DX2                !
 ! A42   A(14,13,25)           120.1254         estimate D2E/DX2                !
 ! A43   A(13,14,15)           119.9098         estimate D2E/DX2                !
 ! A44   A(13,14,26)           120.1974         estimate D2E/DX2                !
 ! A45   A(15,14,26)           119.8928         estimate D2E/DX2                !
 ! A46   A(10,15,14)           120.459          estimate D2E/DX2                !
 ! A47   A(10,15,27)           119.5204         estimate D2E/DX2                !
 ! A48   A(14,15,27)           120.0206         estimate D2E/DX2                !
 ! A49   A(5,16,28)            109.7242         estimate D2E/DX2                !
 ! A50   A(5,16,29)            112.0019         estimate D2E/DX2                !
 ! A51   A(5,16,30)            109.2404         estimate D2E/DX2                !
 ! A52   A(28,16,29)           108.9843         estimate D2E/DX2                !
 ! A53   A(28,16,30)           108.0139         estimate D2E/DX2                !
 ! A54   A(29,16,30)           108.7877         estimate D2E/DX2                !
 ! A55   A(2,17,31)            109.2362         estimate D2E/DX2                !
 ! A56   A(2,17,32)            112.0267         estimate D2E/DX2                !
 ! A57   A(2,17,33)            109.8658         estimate D2E/DX2                !
 ! A58   A(31,17,32)           108.8054         estimate D2E/DX2                !
 ! A59   A(31,17,33)           107.8763         estimate D2E/DX2                !
 ! A60   A(32,17,33)           108.9344         estimate D2E/DX2                !
 ! D1    D(5,1,2,3)             28.0998         estimate D2E/DX2                !
 ! D2    D(5,1,2,17)           163.6585         estimate D2E/DX2                !
 ! D3    D(10,1,2,3)           150.1039         estimate D2E/DX2                !
 ! D4    D(10,1,2,17)          -74.3373         estimate D2E/DX2                !
 ! D5    D(18,1,2,3)           -88.4633         estimate D2E/DX2                !
 ! D6    D(18,1,2,17)           47.0954         estimate D2E/DX2                !
 ! D7    D(2,1,5,4)            -28.1843         estimate D2E/DX2                !
 ! D8    D(2,1,5,16)          -163.6572         estimate D2E/DX2                !
 ! D9    D(10,1,5,4)          -150.2323         estimate D2E/DX2                !
 ! D10   D(10,1,5,16)           74.2948         estimate D2E/DX2                !
 ! D11   D(18,1,5,4)            88.476          estimate D2E/DX2                !
 ! D12   D(18,1,5,16)          -46.9969         estimate D2E/DX2                !
 ! D13   D(2,1,10,11)          -56.3285         estimate D2E/DX2                !
 ! D14   D(2,1,10,15)          123.9495         estimate D2E/DX2                !
 ! D15   D(5,1,10,11)           59.5381         estimate D2E/DX2                !
 ! D16   D(5,1,10,15)         -120.1839         estimate D2E/DX2                !
 ! D17   D(18,1,10,11)        -178.5027         estimate D2E/DX2                !
 ! D18   D(18,1,10,15)           1.7753         estimate D2E/DX2                !
 ! D19   D(1,2,3,4)            -18.03           estimate D2E/DX2                !
 ! D20   D(1,2,3,9)            163.2727         estimate D2E/DX2                !
 ! D21   D(17,2,3,4)          -151.8427         estimate D2E/DX2                !
 ! D22   D(17,2,3,9)            29.46           estimate D2E/DX2                !
 ! D23   D(1,2,17,31)           54.1994         estimate D2E/DX2                !
 ! D24   D(1,2,17,32)          -66.4292         estimate D2E/DX2                !
 ! D25   D(1,2,17,33)          172.3484         estimate D2E/DX2                !
 ! D26   D(3,2,17,31)         -176.4311         estimate D2E/DX2                !
 ! D27   D(3,2,17,32)           62.9404         estimate D2E/DX2                !
 ! D28   D(3,2,17,33)          -58.2821         estimate D2E/DX2                !
 ! D29   D(2,3,4,5)             -0.1364         estimate D2E/DX2                !
 ! D30   D(2,3,4,6)           -178.8533         estimate D2E/DX2                !
 ! D31   D(9,3,4,5)            178.709          estimate D2E/DX2                !
 ! D32   D(9,3,4,6)             -0.0078         estimate D2E/DX2                !
 ! D33   D(2,3,9,8)            177.9891         estimate D2E/DX2                !
 ! D34   D(2,3,9,22)            -2.4199         estimate D2E/DX2                !
 ! D35   D(4,3,9,8)             -0.5667         estimate D2E/DX2                !
 ! D36   D(4,3,9,22)           179.0243         estimate D2E/DX2                !
 ! D37   D(3,4,5,1)             18.2289         estimate D2E/DX2                !
 ! D38   D(3,4,5,16)           151.9479         estimate D2E/DX2                !
 ! D39   D(6,4,5,1)           -163.2183         estimate D2E/DX2                !
 ! D40   D(6,4,5,16)           -29.4993         estimate D2E/DX2                !
 ! D41   D(3,4,6,7)              0.5628         estimate D2E/DX2                !
 ! D42   D(3,4,6,19)          -179.1376         estimate D2E/DX2                !
 ! D43   D(5,4,6,7)           -177.8344         estimate D2E/DX2                !
 ! D44   D(5,4,6,19)             2.4652         estimate D2E/DX2                !
 ! D45   D(1,5,16,28)         -172.4088         estimate D2E/DX2                !
 ! D46   D(1,5,16,29)           66.4198         estimate D2E/DX2                !
 ! D47   D(1,5,16,30)          -54.1735         estimate D2E/DX2                !
 ! D48   D(4,5,16,28)           58.3226         estimate D2E/DX2                !
 ! D49   D(4,5,16,29)          -62.8488         estimate D2E/DX2                !
 ! D50   D(4,5,16,30)          176.5579         estimate D2E/DX2                !
 ! D51   D(4,6,7,8)             -0.5428         estimate D2E/DX2                !
 ! D52   D(4,6,7,20)          -179.8093         estimate D2E/DX2                !
 ! D53   D(19,6,7,8)           179.1593         estimate D2E/DX2                !
 ! D54   D(19,6,7,20)           -0.1072         estimate D2E/DX2                !
 ! D55   D(6,7,8,9)             -0.0313         estimate D2E/DX2                !
 ! D56   D(6,7,8,21)          -179.205          estimate D2E/DX2                !
 ! D57   D(20,7,8,9)           179.2302         estimate D2E/DX2                !
 ! D58   D(20,7,8,21)            0.0566         estimate D2E/DX2                !
 ! D59   D(7,8,9,3)              0.5848         estimate D2E/DX2                !
 ! D60   D(7,8,9,22)          -179.0077         estimate D2E/DX2                !
 ! D61   D(21,8,9,3)           179.7644         estimate D2E/DX2                !
 ! D62   D(21,8,9,22)            0.1718         estimate D2E/DX2                !
 ! D63   D(1,10,11,12)        -179.8103         estimate D2E/DX2                !
 ! D64   D(1,10,11,23)           0.2887         estimate D2E/DX2                !
 ! D65   D(15,10,11,12)         -0.086          estimate D2E/DX2                !
 ! D66   D(15,10,11,23)       -179.987          estimate D2E/DX2                !
 ! D67   D(1,10,15,14)         179.7479         estimate D2E/DX2                !
 ! D68   D(1,10,15,27)          -0.242          estimate D2E/DX2                !
 ! D69   D(11,10,15,14)          0.0233         estimate D2E/DX2                !
 ! D70   D(11,10,15,27)       -179.9666         estimate D2E/DX2                !
 ! D71   D(10,11,12,13)          0.1484         estimate D2E/DX2                !
 ! D72   D(10,11,12,24)       -179.9929         estimate D2E/DX2                !
 ! D73   D(23,11,12,13)       -179.9513         estimate D2E/DX2                !
 ! D74   D(23,11,12,24)         -0.0926         estimate D2E/DX2                !
 ! D75   D(11,12,13,14)         -0.1475         estimate D2E/DX2                !
 ! D76   D(11,12,13,25)       -179.9804         estimate D2E/DX2                !
 ! D77   D(24,12,13,14)        179.9941         estimate D2E/DX2                !
 ! D78   D(24,12,13,25)          0.1612         estimate D2E/DX2                !
 ! D79   D(12,13,14,15)          0.0848         estimate D2E/DX2                !
 ! D80   D(12,13,14,26)       -179.9509         estimate D2E/DX2                !
 ! D81   D(25,13,14,15)        179.9176         estimate D2E/DX2                !
 ! D82   D(25,13,14,26)         -0.1181         estimate D2E/DX2                !
 ! D83   D(13,14,15,10)         -0.0231         estimate D2E/DX2                !
 ! D84   D(13,14,15,27)        179.9668         estimate D2E/DX2                !
 ! D85   D(26,14,15,10)       -179.9875         estimate D2E/DX2                !
 ! D86   D(26,14,15,27)          0.0024         estimate D2E/DX2                !
 --------------------------------------------------------------------------------
 Trust Radius=3.00D-01 FncErr=1.00D-07 GrdErr=1.00D-06 EigMax=2.50D+02 EigMin=1.00D-04
 Number of steps in this run=    198 maximum allowed number of steps=    198.
 GradGradGradGradGradGradGradGradGradGradGradGradGradGradGradGradGradGrad

                          Input orientation:                          
 ---------------------------------------------------------------------
 Center     Atomic      Atomic             Coordinates (Angstroms)
 Number     Number       Type             X           Y           Z
 ---------------------------------------------------------------------
      1          6           0       -0.307986    0.009949   -0.595596
      2          7           0        0.450286    1.147312   -0.063919
      3          6           0        1.770653    0.704291    0.070506
      4          6           0        1.768214   -0.703706    0.054226
      5          7           0        0.448601   -1.140598   -0.086958
      6          6           0        2.943640   -1.420990    0.194088
      7          6           0        4.141922   -0.701123    0.365440
      8          6           0        4.144333    0.688901    0.381920
      9          6           0        2.948424    1.415207    0.227029
     10          6           0       -1.756957    0.005936   -0.158709
     11          6           0       -2.085232    0.025465    1.200240
     12          6           0       -3.417958    0.017770    1.600600
     13          6           0       -4.436975   -0.012708    0.644259
     14          6           0       -4.115214   -0.032255   -0.710821
     15          6           0       -2.776648   -0.023134   -1.108908
     16          6           0        0.182813   -2.415972   -0.726094
     17          6           0        0.188159    2.433613   -0.674930
     18          1           0       -0.273894    0.019743   -1.707944
     19          1           0        2.947511   -2.506399    0.168180
     20          1           0        5.076882   -1.245657    0.474018
     21          1           0        5.078357    1.226910    0.502051
     22          1           0        2.954008    2.500744    0.224104
     23          1           0       -1.291239    0.048345    1.941783
     24          1           0       -3.665221    0.033205    2.659905
     25          1           0       -5.476786   -0.018369    0.957733
     26          1           0       -4.902336   -0.055160   -1.458971
     27          1           0       -2.523404   -0.038908   -2.166290
     28          1           0        0.693879   -3.213169   -0.183949
     29          1           0        0.513604   -2.427938   -1.776768
     30          1           0       -0.891883   -2.619030   -0.692652
     31          1           0       -0.885053    2.638435   -0.636885
     32          1           0        0.519175    2.467278   -1.725387
     33          1           0        0.699711    3.220810   -0.116741
 ---------------------------------------------------------------------
                    Distance matrix (angstroms):
                    1          2          3          4          5
     1  C    0.000000
     2  N    1.466715   0.000000
     3  C    2.290533   1.399181   0.000000
     4  C    2.289580   2.275337   1.408093   0.000000
     5  N    1.467956   2.288027   2.275133   1.397207   0.000000
     6  C    3.639266   3.588810   2.430636   1.384082   2.526426
     7  C    4.607700   4.150812   2.772200   2.394024   3.746788
     8  C    4.608650   3.748986   2.394070   2.773568   4.150343
     9  C    3.640833   2.529251   1.384574   2.431573   3.588850
    10  C    1.513408   2.486694   3.603369   3.602189   2.486800
    11  C    2.526632   3.047210   4.074917   4.085840   3.071952
    12  C    3.807265   4.360023   5.452906   5.459687   4.374923
    13  C    4.311184   5.072719   6.275183   6.271363   5.067116
    14  C    3.809205   4.759585   5.983009   5.970835   4.737725
    15  C    2.521681   3.588182   4.753747   4.740446   3.563052
    16  C    2.478509   3.634145   3.590522   2.460539   1.451109
    17  C    2.475197   1.447969   2.459780   3.587619   3.631601
    18  H    1.112913   2.121006   2.794935   2.792638   2.120374
    19  H    4.184928   4.431660   3.420974   2.157181   2.859206
    20  H    5.631822   5.236513   3.859569   3.378938   4.663337
    21  H    5.630143   4.663228   3.376428   3.858092   5.233227
    22  H    4.185280   2.860657   2.156656   3.421033   4.430936
    23  H    2.721498   2.874627   3.647893   3.672697   2.925136
    24  H    4.676522   5.059432   6.058388   6.070817   5.083955
    25  H    5.397233   6.126399   7.337219   7.333215   6.120538
    26  H    4.675223   5.660624   6.888022   6.870707   5.629665
    27  H    2.716163   3.830132   4.898421   4.877564   3.790799
    28  H    3.400247   4.368929   4.070710   2.740133   2.089287
    29  H    2.830807   3.964880   3.847525   2.810616   2.125306
    30  H    2.694789   4.047475   4.326196   3.361906   2.085551
    31  H    2.691403   2.082035   3.360668   4.322889   4.045015
    32  H    2.828266   2.123095   2.810614   3.844771   3.963105
    33  H    3.399174   2.089114   2.741322   4.070965   4.368732
                    6          7          8          9         10
     6  C    0.000000
     7  C    1.408350   0.000000
     8  C    2.434868   1.390124   0.000000
     9  C    2.836392   2.433608   1.407732   0.000000
    10  C    4.925058   5.964180   5.965228   4.927012   0.000000
    11  C    5.328614   6.324735   6.318012   5.311894   1.398173
    12  C    6.672199   7.693778   7.689203   6.661107   2.419552
    13  C    7.527243   8.610989   8.613938   7.533733   2.797785
    14  C    7.250853   8.353803   8.362671   7.271155   2.422326
    15  C    6.031044   7.106334   7.115444   6.052272   1.394092
    16  C    3.075531   4.450472   5.153792   4.820268   3.154405
    17  C    4.817243   5.151813   4.451097   3.077295   3.153344
    18  H    4.005741   4.931328   4.933157   4.009336   2.144713
    19  H    1.085725   2.173603   3.418773   3.922048   5.343286
    20  H    2.158663   1.087408   2.149568   3.416363   6.976259
    21  H    3.415147   2.147763   1.084567   2.155854   6.974876
    22  H    3.921863   3.418050   2.173604   1.085555   5.344512
    23  H    4.811193   5.706645   5.691127   4.773200   2.151920
    24  H    7.202220   8.170391   8.161390   7.181164   3.403939
    25  H    8.570535   9.661082   9.664250   8.577484   3.883833
    26  H    8.133722   9.249019   9.262004   8.163272   3.404089
    27  H    6.113109   7.160639   7.175082   6.146814   2.149380
    28  H    2.901076   4.301303   5.239465   5.164663   4.045970
    29  H    3.286836   4.553640   5.249458   4.971249   3.700987
    30  H    4.114954   5.489728   6.120505   5.645249   2.814941
    31  H    5.641661   6.117825   5.489387   4.115602   2.814058
    32  H    4.968002   5.247344   4.554683   3.289382   3.700468
    33  H    5.165088   5.240503   4.304027   2.904323   4.046281
                   11         12         13         14         15
    11  C    0.000000
    12  C    1.391584   0.000000
    13  C    2.416871   1.397824   0.000000
    14  C    2.788604   2.414816   1.392894   0.000000
    15  C    2.410930   2.784670   2.414620   1.396537   0.000000
    16  C    3.849079   4.929722   5.384792   4.914812   3.825001
    17  C    3.805752   4.900858   5.395981   4.959921   3.874793
    18  H    3.426151   4.564165   4.781752   3.968967   2.573803
    19  H    5.727476   6.995888   7.808699   7.534993   6.368952
    20  H    7.310200   8.661856   9.594927   9.347236   8.104206
    21  H    7.297119   8.651948   9.596792   9.358328   8.115350
    22  H    5.698578   6.975805   7.817966   7.567303   6.402132
    23  H    1.086662   2.154130   3.403373   3.875260   3.393857
    24  H    2.151057   1.087890   2.158829   3.401260   3.872556
    25  H    3.400495   2.157164   1.086050   2.153635   3.400261
    26  H    3.874788   3.401422   2.154516   1.086192   2.154558
    27  H    3.395536   3.872067   3.400239   2.156918   1.087400
    28  H    4.486445   5.525467   6.103650   5.789921   4.803793
    29  H    4.651421   5.731081   6.016888   5.319915   4.129755
    30  H    3.464170   4.311934   4.598687   4.132989   3.234854
    31  H    3.412194   4.276661   4.613679   4.191896   3.299225
    32  H    4.615699   5.706426   6.027352   5.362329   4.176679
    33  H    4.438533   5.492169   6.117213   5.841136   4.857226
                   16         17         18         19         20
    16  C    0.000000
    17  C    4.849858   0.000000
    18  H    2.665580   2.665967   0.000000
    19  H    2.907139   5.720889   4.503186   0.000000
    20  H    5.173183   6.225490   5.915488   2.493437   0.000000
    21  H    6.224571   5.172567   5.915059   4.311562   2.472726
    22  H    5.723329   2.909070   4.506387   5.007460   4.313302
    23  H    3.919599   3.837357   3.788973   5.257317   6.661962
    24  H    5.680741   5.633083   5.529863   7.509095   9.101536
    25  H    6.372977   6.385092   5.846142   8.819437  10.635795
    26  H    5.654139   5.720301   4.635739   8.383096  10.234184
    27  H    3.879202   3.961071   2.296479   6.439656   8.135835
    28  H    1.091161   5.690603   3.702819   2.387965   4.849200
    29  H    1.101581   4.995462   2.572165   3.116550   5.223728
    30  H    1.094222   5.166818   2.894106   3.936326   6.234856
    31  H    5.166752   1.093244   2.894517   6.465755   7.201732
    32  H    4.995784   1.101891   2.572876   5.849776   6.276620
    33  H    5.693137   1.092218   3.704951   6.159116   6.281556
                   21         22         23         24         25
    21  H    0.000000
    22  H    2.492542   0.000000
    23  H    6.635782   5.194883   0.000000
    24  H    9.084681   7.472354   2.480266   0.000000
    25  H   10.638111   8.829633   4.300187   2.486326   0.000000
    26  H   10.252002   8.431342   4.961438   4.301558   2.484312
    27  H    8.155312   6.493524   4.289768   4.959950   4.299117
    28  H    6.277623   6.158205   4.370000   6.134183   7.041825
    29  H    6.275978   5.852433   4.818408   6.572965   7.012011
    30  H    7.201551   6.468648   3.770228   5.095625   5.523454
    31  H    6.233124   3.936833   3.677375   5.038391   5.539443
    32  H    5.223613   3.119302   4.751523   6.531820   7.023469
    33  H    4.850885   2.390926   4.273867   6.076448   7.056620
                   26         27         28         29         30
    26  H    0.000000
    27  H    2.481911   0.000000
    28  H    6.551056   4.935233   0.000000
    29  H    5.921442   3.883634   1.784982   0.000000
    30  H    4.821246   3.389764   1.768169   1.785278   0.000000
    31  H    4.906102   3.491624   6.077783   5.378077   5.257765
    32  H    5.985520   3.966440   5.888466   4.895489   5.378490
    33  H    6.626952   5.021442   6.434333   5.890558   6.080179
                   31         32         33
    31  H    0.000000
    32  H    1.784933   0.000000
    33  H    1.766688   1.785538   0.000000
 Stoichiometry    C15H16N2
 Framework group  C1[X(C15H16N2)]
 Deg. of freedom    93
 Full point group                 C1      NOp   1
 Largest Abelian subgroup         C1      NOp   1
 Largest concise Abelian subgroup C1      NOp   1
                         Standard orientation:                         
 ---------------------------------------------------------------------
 Center     Atomic      Atomic             Coordinates (Angstroms)
 Number     Number       Type             X           Y           Z
 ---------------------------------------------------------------------
      1          6           0        0.308070    0.004233   -0.595551
      2          7           0       -0.451496   -1.144719   -0.091347
      3          6           0       -1.771352   -0.703547    0.053753
      4          6           0       -1.767300    0.704430    0.071339
      5          7           0       -0.447190    1.143080   -0.059357
      6          6           0       -2.941901    1.419489    0.228463
      7          6           0       -4.141004    0.697081    0.382507
      8          6           0       -4.145007   -0.692933    0.365554
      9          6           0       -2.949934   -1.416673    0.193187
     10          6           0        1.757052   -0.003921   -0.158759
     11          6           0        2.085328   -0.056503    1.199312
     12          6           0        3.418069   -0.059964    1.599681
     13          6           0        4.437104   -0.007662    0.644304
     14          6           0        4.115342    0.044836   -0.709899
     15          6           0        2.776759    0.046825   -1.108030
     16          6           0       -0.179952    2.433151   -0.667648
     17          6           0       -0.190853   -2.416253   -0.733127
     18          1           0        0.273947    0.021232   -1.707812
     19          1           0       -2.944529    2.505210    0.228666
     20          1           0       -5.075338    1.239917    0.504192
     21          1           0       -5.079645   -1.232606    0.472753
     22          1           0       -2.956762   -2.501819    0.164156
     23          1           0        1.291322   -0.096300    1.940126
     24          1           0        3.665332   -0.101153    2.658298
     25          1           0        5.476926   -0.010732    0.957777
     26          1           0        4.902476    0.084825   -1.457317
     27          1           0        2.523515    0.088313   -2.164716
     28          1           0       -0.690095    3.217664   -0.106465
     29          1           0       -0.510747    2.470760   -1.717715
     30          1           0        0.894977    2.634115   -0.629381
     31          1           0        0.882124   -2.623159   -0.700068
     32          1           0       -0.521926   -2.424266   -1.784075
     33          1           0       -0.703297   -3.216060   -0.194008
 ---------------------------------------------------------------------
 Rotational constants (GHZ):           1.1583370           0.2909061           0.2624738
 Standard basis: 6-31+G(d,p) (6D, 7F)
 There are   403 symmetry adapted cartesian basis functions of A   symmetry.
 There are   403 symmetry adapted basis functions of A   symmetry.
   403 basis functions,   656 primitive gaussians,   403 cartesian basis functions
    60 alpha electrons       60 beta electrons
       nuclear repulsion energy      1159.0896798711 Hartrees.
 NAtoms=   33 NActive=   33 NUniq=   33 SFac= 1.00D+00 NAtFMM=   60 NAOKFM=F Big=F
 Integral buffers will be    131072 words long.
 Raffenetti 2 integral format.
 Two-electron integral symmetry is turned on.
 Nuclear repulsion after empirical dispersion term =     1159.0647951619 Hartrees.
 ------------------------------------------------------------------------------
 Polarizable Continuum Model (PCM)
 =================================
 Model                : PCM.
 Atomic radii         : SMD-Coulomb.
 Polarization charges : Total charges.
 Charge compensation  : None.
 Solution method      : On-the-fly selection.
 Cavity type          : VdW (van der Waals Surface) (Alpha=1.000).
 Cavity algorithm     : GePol (No added spheres)
                        Default sphere list used, NSphG=   33.
                        Lebedev-Laikov grids with approx.  5.0 points / Ang**2.
                        Smoothing algorithm: York/Karplus (Gamma=1.0000).
                        Polarization charges: spherical gaussians, with
                                              point-specific exponents (IZeta= 3).
                        Self-potential: point-specific (ISelfS= 7).
                        Self-field    : sphere-specific E.n sum rule (ISelfD= 2).
 1st derivatives      : Analytical E(r).r(x)/FMM algorithm (CHGder, D1EAlg=3).
                        Cavity 1st derivative terms included.
 Solvent              : Acetonitrile, Eps=  35.688000 Eps(inf)=   1.806874
 ------------------------------------------------------------------------------
 ------------------------------------------------------------------------------
 Atomic radii for non-electrostatic terms: SMD-CDS.
 ------------------------------------------------------------------------------
 Nuclear repulsion after PCM non-electrostatic terms =     1159.0591835720 Hartrees.
 One-electron integrals computed using PRISM.
 NBasis=   403 RedAO= T EigKep=  1.08D-06  NBF=   403
 NBsUse=   402 1.00D-06 EigRej=  8.09D-07 NBFU=   402
 ExpMin= 4.38D-02 ExpMax= 4.17D+03 ExpMxC= 6.27D+02 IAcc=3 IRadAn=         5 AccDes= 0.00D+00
 Harris functional with IExCor= 4639 and IRadAn=       5 diagonalized for initial guess.
 HarFok:  IExCor= 4639 AccDes= 0.00D+00 IRadAn=         5 IDoV= 1 UseB2=F ITyADJ=14
 ICtDFT=  3500011 ScaDFX=  1.000000  1.000000  1.000000  1.000000
 FoFCou: FMM=F IPFlag=           0 FMFlag=      100000 FMFlg1=           0
         NFxFlg=           0 DoJE=T BraDBF=F KetDBF=T FulRan=T
         wScrn=  0.000000 ICntrl=       500 IOpCl=  0 I1Cent=   200000004 NGrid=           0
         NMat0=    1 NMatS0=      1 NMatT0=    0 NMatD0=    1 NMtDS0=    0 NMtDT0=    0
 Petite list used in FoFCou.
 Initial guess <Sx>= 0.0000 <Sy>= 0.0000 <Sz>= 0.0000 <S**2>= 0.0000 S= 0.0000
 Requested convergence on RMS density matrix=1.00D-08 within 500 cycles.
 Requested convergence on MAX density matrix=1.00D-06.
 Requested convergence on             energy=1.00D-06.
 No special actions if energy rises.
 Inv3:  Mode=1 IEnd=    18125292.
 Iteration    1 A*A^-1 deviation from unit magnitude is 5.11D-15 for   2429.
 Iteration    1 A*A^-1 deviation from orthogonality  is 2.78D-15 for   1886    680.
 Iteration    1 A^-1*A deviation from unit magnitude is 5.11D-15 for   2429.
 Iteration    1 A^-1*A deviation from orthogonality  is 2.70D-15 for   1783    213.
 Error on total polarization charges =  0.06521
 SCF Done:  E(UwB97XD) =  -690.567345671     A.U. after   16 cycles
            NFock= 16  Conv=0.69D-08     -V/T= 2.0095
 <Sx>= 0.0000 <Sy>= 0.0000 <Sz>= 0.0000 <S**2>=-0.0000 S=-0.0000
 <L.S>= 0.000000000000E+00
 SMD-CDS (non-electrostatic) energy       (kcal/mol) =      -3.52
 (included in total energy above)
 Annihilation of the first spin contaminant:
 S**2 before annihilation    -0.0000,   after     0.0000

 **********************************************************************

            Population analysis using the SCF Density.

 **********************************************************************

 Orbital symmetries:
 Alpha Orbitals:
       Occupied  (A) (A) (A) (A) (A) (A) (A) (A) (A) (A) (A) (A)
                 (A) (A) (A) (A) (A) (A) (A) (A) (A) (A) (A) (A)
                 (A) (A) (A) (A) (A) (A) (A) (A) (A) (A) (A) (A)
                 (A) (A) (A) (A) (A) (A) (A) (A) (A) (A) (A) (A)
                 (A) (A) (A) (A) (A) (A) (A) (A) (A) (A) (A) (A)
       Virtual   (A) (A) (A) (A) (A) (A) (A) (A) (A) (A) (A) (A)
                 (A) (A) (A) (A) (A) (A) (A) (A) (A) (A) (A) (A)
                 (A) (A) (A) (A) (A) (A) (A) (A) (A) (A) (A) (A)
                 (A) (A) (A) (A) (A) (A) (A) (A) (A) (A) (A) (A)
                 (A) (A) (A) (A) (A) (A) (A) (A) (A) (A) (A) (A)
                 (A) (A) (A) (A) (A) (A) (A) (A) (A) (A) (A) (A)
                 (A) (A) (A) (A) (A) (A) (A) (A) (A) (A) (A) (A)
                 (A) (A) (A) (A) (A) (A) (A) (A) (A) (A) (A) (A)
                 (A) (A) (A) (A) (A) (A) (A) (A) (A) (A) (A) (A)
                 (A) (A) (A) (A) (A) (A) (A) (A) (A) (A) (A) (A)
                 (A) (A) (A) (A) (A) (A) (A) (A) (A) (A) (A) (A)
                 (A) (A) (A) (A) (A) (A) (A) (A) (A) (A) (A) (A)
                 (A) (A) (A) (A) (A) (A) (A) (A) (A) (A) (A) (A)
                 (A) (A) (A) (A) (A) (A) (A) (A) (A) (A) (A) (A)
                 (A) (A) (A) (A) (A) (A) (A) (A) (A) (A) (A) (A)
                 (A) (A) (A) (A) (A) (A) (A) (A) (A) (A) (A) (A)
                 (A) (A) (A) (A) (A) (A) (A) (A) (A) (A) (A) (A)
                 (A) (A) (A) (A) (A) (A) (A) (A) (A) (A) (A) (A)
                 (A) (A) (A) (A) (A) (A) (A) (A) (A) (A) (A) (A)
                 (A) (A) (A) (A) (A) (A) (A) (A) (A) (A) (A) (A)
                 (A) (A) (A) (A) (A) (A) (A) (A) (A) (A) (A) (A)
                 (A) (A) (A) (A) (A) (A) (A) (A) (A) (A) (A) (A)
                 (A) (A) (A) (A) (A) (A) (A) (A) (A) (A) (A) (A)
                 (A) (A) (A) (A) (A) (A) (A) (A) (A) (A) (A) (A)
                 (A) (A) (A) (A) (A) (A) (A) (A) (A) (A) (A) (A)
                 (A) (A) (A) (A) (A) (A) (A) (A) (A) (A) (A) (A)
                 (A) (A) (A) (A) (A) (A) (A) (A) (A) (A) (A) (A)
                 (A) (A) (A) (A) (A) (A) (A) (A) (A) (A) (A) (A)
                 (A) (A) (A) (A) (A) (A)
 Beta  Orbitals:
       Occupied  (A) (A) (A) (A) (A) (A) (A) (A) (A) (A) (A) (A)
                 (A) (A) (A) (A) (A) (A) (A) (A) (A) (A) (A) (A)
                 (A) (A) (A) (A) (A) (A) (A) (A) (A) (A) (A) (A)
                 (A) (A) (A) (A) (A) (A) (A) (A) (A) (A) (A) (A)
                 (A) (A) (A) (A) (A) (A) (A) (A) (A) (A) (A) (A)
       Virtual   (A) (A) (A) (A) (A) (A) (A) (A) (A) (A) (A) (A)
                 (A) (A) (A) (A) (A) (A) (A) (A) (A) (A) (A) (A)
                 (A) (A) (A) (A) (A) (A) (A) (A) (A) (A) (A) (A)
                 (A) (A) (A) (A) (A) (A) (A) (A) (A) (A) (A) (A)
                 (A) (A) (A) (A) (A) (A) (A) (A) (A) (A) (A) (A)
                 (A) (A) (A) (A) (A) (A) (A) (A) (A) (A) (A) (A)
                 (A) (A) (A) (A) (A) (A) (A) (A) (A) (A) (A) (A)
                 (A) (A) (A) (A) (A) (A) (A) (A) (A) (A) (A) (A)
                 (A) (A) (A) (A) (A) (A) (A) (A) (A) (A) (A) (A)
                 (A) (A) (A) (A) (A) (A) (A) (A) (A) (A) (A) (A)
                 (A) (A) (A) (A) (A) (A) (A) (A) (A) (A) (A) (A)
                 (A) (A) (A) (A) (A) (A) (A) (A) (A) (A) (A) (A)
                 (A) (A) (A) (A) (A) (A) (A) (A) (A) (A) (A) (A)
                 (A) (A) (A) (A) (A) (A) (A) (A) (A) (A) (A) (A)
                 (A) (A) (A) (A) (A) (A) (A) (A) (A) (A) (A) (A)
                 (A) (A) (A) (A) (A) (A) (A) (A) (A) (A) (A) (A)
                 (A) (A) (A) (A) (A) (A) (A) (A) (A) (A) (A) (A)
                 (A) (A) (A) (A) (A) (A) (A) (A) (A) (A) (A) (A)
                 (A) (A) (A) (A) (A) (A) (A) (A) (A) (A) (A) (A)
                 (A) (A) (A) (A) (A) (A) (A) (A) (A) (A) (A) (A)
                 (A) (A) (A) (A) (A) (A) (A) (A) (A) (A) (A) (A)
                 (A) (A) (A) (A) (A) (A) (A) (A) (A) (A) (A) (A)
                 (A) (A) (A) (A) (A) (A) (A) (A) (A) (A) (A) (A)
                 (A) (A) (A) (A) (A) (A) (A) (A) (A) (A) (A) (A)
                 (A) (A) (A) (A) (A) (A) (A) (A) (A) (A) (A) (A)
                 (A) (A) (A) (A) (A) (A) (A) (A) (A) (A) (A) (A)
                 (A) (A) (A) (A) (A) (A) (A) (A) (A) (A) (A) (A)
                 (A) (A) (A) (A) (A) (A) (A) (A) (A) (A) (A) (A)
                 (A) (A) (A) (A) (A) (A)
 The electronic state is 1-A.
 Alpha  occ. eigenvalues --  -14.47093 -14.47076 -10.36831 -10.33358 -10.33304
 Alpha  occ. eigenvalues --  -10.31650 -10.31625 -10.31184 -10.30662 -10.30644
 Alpha  occ. eigenvalues --  -10.30601 -10.30564 -10.30484 -10.29900 -10.29894
 Alpha  occ. eigenvalues --  -10.29658 -10.29591  -1.10338  -1.00617  -0.96527
 Alpha  occ. eigenvalues --   -0.94447  -0.87215  -0.84795  -0.84496  -0.84128
 Alpha  occ. eigenvalues --   -0.80978  -0.76279  -0.74066  -0.70245  -0.68243
 Alpha  occ. eigenvalues --   -0.68047  -0.66742  -0.60918  -0.59620  -0.58909
 Alpha  occ. eigenvalues --   -0.58793  -0.55613  -0.53432  -0.52992  -0.52859
 Alpha  occ. eigenvalues --   -0.51949  -0.51667  -0.50442  -0.50264  -0.49496
 Alpha  occ. eigenvalues --   -0.47892  -0.47030  -0.45944  -0.45849  -0.45646
 Alpha  occ. eigenvalues --   -0.43428  -0.42435  -0.42161  -0.42070  -0.37220
 Alpha  occ. eigenvalues --   -0.37137  -0.33422  -0.33109  -0.30268  -0.25446
 Alpha virt. eigenvalues --    0.04656   0.05367   0.05862   0.07130   0.07485
 Alpha virt. eigenvalues --    0.07995   0.08438   0.08502   0.09136   0.09866
 Alpha virt. eigenvalues --    0.09938   0.10458   0.10979   0.11400   0.11650
 Alpha virt. eigenvalues --    0.12385   0.12461   0.13242   0.14117   0.14212
 Alpha virt. eigenvalues --    0.14721   0.14760   0.15149   0.15326   0.17661
 Alpha virt. eigenvalues --    0.17700   0.18346   0.18576   0.18809   0.18836
 Alpha virt. eigenvalues --    0.19612   0.19858   0.20070   0.20559   0.20841
 Alpha virt. eigenvalues --    0.20935   0.22253   0.22289   0.22600   0.22925
 Alpha virt. eigenvalues --    0.23482   0.23653   0.23924   0.24796   0.24863
 Alpha virt. eigenvalues --    0.25384   0.25622   0.26097   0.26459   0.26576
 Alpha virt. eigenvalues --    0.26767   0.27500   0.27903   0.28238   0.28313
 Alpha virt. eigenvalues --    0.28570   0.28656   0.29591   0.29758   0.29997
 Alpha virt. eigenvalues --    0.30142   0.30533   0.31717   0.32123   0.32506
 Alpha virt. eigenvalues --    0.32849   0.33078   0.33177   0.33742   0.34038
 Alpha virt. eigenvalues --    0.34161   0.35072   0.35343   0.35909   0.36424
 Alpha virt. eigenvalues --    0.36526   0.36991   0.37198   0.37676   0.38678
 Alpha virt. eigenvalues --    0.38899   0.39442   0.39742   0.39826   0.40508
 Alpha virt. eigenvalues --    0.40834   0.41888   0.42164   0.42498   0.42863
 Alpha virt. eigenvalues --    0.44349   0.44844   0.46618   0.46937   0.48316
 Alpha virt. eigenvalues --    0.48501   0.49566   0.50827   0.52667   0.52880
 Alpha virt. eigenvalues --    0.54012   0.54088   0.54818   0.57088   0.67196
 Alpha virt. eigenvalues --    0.67354   0.71136   0.71982   0.73527   0.75565
 Alpha virt. eigenvalues --    0.75690   0.77338   0.77991   0.78364   0.78948
 Alpha virt. eigenvalues --    0.79098   0.79767   0.81526   0.81809   0.82666
 Alpha virt. eigenvalues --    0.82794   0.83746   0.84194   0.84823   0.86180
 Alpha virt. eigenvalues --    0.87201   0.87987   0.88347   0.89115   0.89342
 Alpha virt. eigenvalues --    0.89996   0.90462   0.91367   0.92726   0.93753
 Alpha virt. eigenvalues --    0.95598   0.95689   0.98468   0.99117   1.01064
 Alpha virt. eigenvalues --    1.01533   1.01599   1.02637   1.03433   1.04156
 Alpha virt. eigenvalues --    1.05089   1.05231   1.06454   1.07844   1.08158
 Alpha virt. eigenvalues --    1.09706   1.11024   1.11388   1.11982   1.12464
 Alpha virt. eigenvalues --    1.14118   1.14358   1.15570   1.15931   1.17751
 Alpha virt. eigenvalues --    1.18728   1.21653   1.22034   1.22865   1.23481
 Alpha virt. eigenvalues --    1.23932   1.24161   1.26583   1.27278   1.27923
 Alpha virt. eigenvalues --    1.28237   1.29435   1.30047   1.31613   1.33947
 Alpha virt. eigenvalues --    1.34448   1.35219   1.36709   1.38600   1.39636
 Alpha virt. eigenvalues --    1.42596   1.43653   1.46038   1.46981   1.48022
 Alpha virt. eigenvalues --    1.48378   1.48880   1.49556   1.50390   1.50702
 Alpha virt. eigenvalues --    1.51254   1.53033   1.53733   1.54544   1.56015
 Alpha virt. eigenvalues --    1.62296   1.64515   1.65482   1.67739   1.71400
 Alpha virt. eigenvalues --    1.71645   1.77558   1.82913   1.84242   1.85534
 Alpha virt. eigenvalues --    1.86708   1.90999   1.92217   1.94342   1.94983
 Alpha virt. eigenvalues --    1.95355   1.98166   1.99379   2.00812   2.01148
 Alpha virt. eigenvalues --    2.01644   2.02127   2.02236   2.03959   2.05068
 Alpha virt. eigenvalues --    2.06956   2.07113   2.08446   2.08592   2.09517
 Alpha virt. eigenvalues --    2.11398   2.11460   2.11506   2.11952   2.12864
 Alpha virt. eigenvalues --    2.14403   2.15491   2.15973   2.16427   2.16616
 Alpha virt. eigenvalues --    2.18505   2.21464   2.22571   2.22764   2.24647
 Alpha virt. eigenvalues --    2.25649   2.26282   2.28675   2.31853   2.35159
 Alpha virt. eigenvalues --    2.36401   2.38093   2.39094   2.39302   2.40426
 Alpha virt. eigenvalues --    2.42035   2.45599   2.46583   2.48572   2.48855
 Alpha virt. eigenvalues --    2.48958   2.49378   2.49798   2.51075   2.55420
 Alpha virt. eigenvalues --    2.55739   2.57073   2.57851   2.58167   2.61176
 Alpha virt. eigenvalues --    2.61434   2.61617   2.64530   2.64969   2.66267
 Alpha virt. eigenvalues --    2.66548   2.66616   2.68588   2.68819   2.69316
 Alpha virt. eigenvalues --    2.72151   2.72596   2.73343   2.75298   2.75996
 Alpha virt. eigenvalues --    2.76145   2.79402   2.80188   2.80960   2.82579
 Alpha virt. eigenvalues --    2.83146   2.84185   2.85980   2.87371   2.89659
 Alpha virt. eigenvalues --    2.90278   2.92221   2.93337   2.93674   2.99436
 Alpha virt. eigenvalues --    3.00754   3.04099   3.07527   3.08699   3.11389
 Alpha virt. eigenvalues --    3.12186   3.17602   3.18989   3.24155   3.28335
 Alpha virt. eigenvalues --    3.28943   3.33356   3.37166   3.37277   3.38232
 Alpha virt. eigenvalues --    3.38849   3.39104   3.45810   3.48100   3.49755
 Alpha virt. eigenvalues --    3.52893   3.57652   3.58537   3.58792   3.59610
 Alpha virt. eigenvalues --    3.60112   3.61919   3.64385   3.96928   4.00749
 Alpha virt. eigenvalues --    4.39865   4.41619   4.42472   4.45948   4.50356
 Alpha virt. eigenvalues --    4.55511   4.55785   4.59866   4.60604   4.64158
 Alpha virt. eigenvalues --    4.66879   4.70636   4.71218   4.75272   4.84233
 Alpha virt. eigenvalues --    4.98586   4.99839
  Beta  occ. eigenvalues --  -14.47093 -14.47076 -10.36831 -10.33358 -10.33304
  Beta  occ. eigenvalues --  -10.31650 -10.31625 -10.31184 -10.30662 -10.30644
  Beta  occ. eigenvalues --  -10.30601 -10.30564 -10.30484 -10.29900 -10.29894
  Beta  occ. eigenvalues --  -10.29658 -10.29591  -1.10338  -1.00617  -0.96527
  Beta  occ. eigenvalues --   -0.94447  -0.87215  -0.84795  -0.84496  -0.84128
  Beta  occ. eigenvalues --   -0.80978  -0.76279  -0.74066  -0.70245  -0.68243
  Beta  occ. eigenvalues --   -0.68047  -0.66742  -0.60918  -0.59620  -0.58909
  Beta  occ. eigenvalues --   -0.58793  -0.55613  -0.53432  -0.52992  -0.52859
  Beta  occ. eigenvalues --   -0.51949  -0.51667  -0.50442  -0.50264  -0.49496
  Beta  occ. eigenvalues --   -0.47892  -0.47030  -0.45944  -0.45849  -0.45646
  Beta  occ. eigenvalues --   -0.43428  -0.42435  -0.42161  -0.42070  -0.37220
  Beta  occ. eigenvalues --   -0.37137  -0.33422  -0.33109  -0.30268  -0.25446
  Beta virt. eigenvalues --    0.04656   0.05367   0.05862   0.07130   0.07485
  Beta virt. eigenvalues --    0.07995   0.08438   0.08502   0.09136   0.09866
  Beta virt. eigenvalues --    0.09938   0.10458   0.10979   0.11400   0.11650
  Beta virt. eigenvalues --    0.12385   0.12461   0.13242   0.14117   0.14212
  Beta virt. eigenvalues --    0.14721   0.14760   0.15149   0.15326   0.17661
  Beta virt. eigenvalues --    0.17700   0.18346   0.18576   0.18809   0.18836
  Beta virt. eigenvalues --    0.19612   0.19858   0.20070   0.20559   0.20841
  Beta virt. eigenvalues --    0.20935   0.22253   0.22289   0.22600   0.22925
  Beta virt. eigenvalues --    0.23482   0.23653   0.23924   0.24796   0.24863
  Beta virt. eigenvalues --    0.25384   0.25622   0.26097   0.26459   0.26576
  Beta virt. eigenvalues --    0.26767   0.27500   0.27903   0.28238   0.28313
  Beta virt. eigenvalues --    0.28570   0.28656   0.29591   0.29758   0.29997
  Beta virt. eigenvalues --    0.30142   0.30533   0.31717   0.32123   0.32506
  Beta virt. eigenvalues --    0.32849   0.33078   0.33177   0.33742   0.34038
  Beta virt. eigenvalues --    0.34161   0.35072   0.35343   0.35909   0.36424
  Beta virt. eigenvalues --    0.36526   0.36991   0.37198   0.37676   0.38678
  Beta virt. eigenvalues --    0.38899   0.39442   0.39742   0.39826   0.40508
  Beta virt. eigenvalues --    0.40834   0.41888   0.42164   0.42498   0.42863
  Beta virt. eigenvalues --    0.44349   0.44844   0.46618   0.46937   0.48316
  Beta virt. eigenvalues --    0.48501   0.49566   0.50827   0.52667   0.52880
  Beta virt. eigenvalues --    0.54012   0.54088   0.54818   0.57088   0.67196
  Beta virt. eigenvalues --    0.67354   0.71136   0.71982   0.73527   0.75565
  Beta virt. eigenvalues --    0.75690   0.77338   0.77991   0.78364   0.78948
  Beta virt. eigenvalues --    0.79098   0.79767   0.81526   0.81809   0.82666
  Beta virt. eigenvalues --    0.82794   0.83746   0.84194   0.84823   0.86180
  Beta virt. eigenvalues --    0.87201   0.87987   0.88347   0.89115   0.89342
  Beta virt. eigenvalues --    0.89996   0.90462   0.91367   0.92726   0.93753
  Beta virt. eigenvalues --    0.95598   0.95689   0.98468   0.99117   1.01064
  Beta virt. eigenvalues --    1.01533   1.01599   1.02637   1.03433   1.04156
  Beta virt. eigenvalues --    1.05089   1.05231   1.06454   1.07844   1.08158
  Beta virt. eigenvalues --    1.09706   1.11024   1.11388   1.11982   1.12464
  Beta virt. eigenvalues --    1.14118   1.14358   1.15570   1.15931   1.17751
  Beta virt. eigenvalues --    1.18728   1.21653   1.22034   1.22865   1.23481
  Beta virt. eigenvalues --    1.23932   1.24161   1.26583   1.27278   1.27923
  Beta virt. eigenvalues --    1.28237   1.29435   1.30047   1.31613   1.33947
  Beta virt. eigenvalues --    1.34448   1.35219   1.36709   1.38600   1.39636
  Beta virt. eigenvalues --    1.42596   1.43653   1.46038   1.46981   1.48022
  Beta virt. eigenvalues --    1.48378   1.48880   1.49556   1.50390   1.50702
  Beta virt. eigenvalues --    1.51254   1.53033   1.53733   1.54544   1.56015
  Beta virt. eigenvalues --    1.62296   1.64515   1.65482   1.67739   1.71400
  Beta virt. eigenvalues --    1.71645   1.77558   1.82913   1.84242   1.85534
  Beta virt. eigenvalues --    1.86708   1.90999   1.92217   1.94342   1.94983
  Beta virt. eigenvalues --    1.95355   1.98166   1.99379   2.00812   2.01148
  Beta virt. eigenvalues --    2.01644   2.02127   2.02236   2.03959   2.05068
  Beta virt. eigenvalues --    2.06956   2.07113   2.08446   2.08592   2.09517
  Beta virt. eigenvalues --    2.11398   2.11460   2.11506   2.11952   2.12864
  Beta virt. eigenvalues --    2.14403   2.15491   2.15973   2.16427   2.16616
  Beta virt. eigenvalues --    2.18505   2.21464   2.22571   2.22764   2.24647
  Beta virt. eigenvalues --    2.25649   2.26282   2.28675   2.31853   2.35159
  Beta virt. eigenvalues --    2.36401   2.38093   2.39094   2.39302   2.40426
  Beta virt. eigenvalues --    2.42035   2.45599   2.46583   2.48572   2.48855
  Beta virt. eigenvalues --    2.48958   2.49378   2.49798   2.51075   2.55420
  Beta virt. eigenvalues --    2.55739   2.57073   2.57851   2.58167   2.61176
  Beta virt. eigenvalues --    2.61434   2.61617   2.64530   2.64969   2.66267
  Beta virt. eigenvalues --    2.66548   2.66616   2.68588   2.68819   2.69316
  Beta virt. eigenvalues --    2.72151   2.72596   2.73343   2.75298   2.75996
  Beta virt. eigenvalues --    2.76145   2.79402   2.80188   2.80960   2.82579
  Beta virt. eigenvalues --    2.83146   2.84185   2.85980   2.87371   2.89659
  Beta virt. eigenvalues --    2.90278   2.92221   2.93337   2.93674   2.99436
  Beta virt. eigenvalues --    3.00754   3.04099   3.07527   3.08699   3.11389
  Beta virt. eigenvalues --    3.12186   3.17602   3.18989   3.24155   3.28335
  Beta virt. eigenvalues --    3.28943   3.33356   3.37166   3.37277   3.38232
  Beta virt. eigenvalues --    3.38849   3.39104   3.45810   3.48100   3.49755
  Beta virt. eigenvalues --    3.52893   3.57652   3.58537   3.58792   3.59610
  Beta virt. eigenvalues --    3.60112   3.61919   3.64385   3.96928   4.00749
  Beta virt. eigenvalues --    4.39865   4.41619   4.42472   4.45948   4.50356
  Beta virt. eigenvalues --    4.55511   4.55785   4.59866   4.60604   4.64158
  Beta virt. eigenvalues --    4.66879   4.70636   4.71218   4.75272   4.84233
  Beta virt. eigenvalues --    4.98586   4.99839
          Condensed to atoms (all electrons):
               1          2          3          4          5          6
     1  C   25.845664  -2.527260  -0.824406  -0.883345  -2.578000  -1.605155
     2  N   -2.527260   7.957130  -0.394276   0.482024   0.096169  -0.000526
     3  C   -0.824406  -0.394276  13.847899  -1.709287   0.486521  -0.415837
     4  C   -0.883345   0.482024  -1.709287  13.882062  -0.372411  -4.595465
     5  N   -2.578000   0.096169   0.486521  -0.372411   7.961322   0.259469
     6  C   -1.605155  -0.000526  -0.415837  -4.595465   0.259469  10.460725
     7  C   -0.079272   0.027112  -0.853137   0.675299  -0.019006  -0.063664
     8  C   -0.103831  -0.017646   0.682804  -0.877618   0.029470   0.159520
     9  C   -1.305531   0.192478  -4.389592  -0.374111  -0.018808   1.514657
    10  C   -5.918788   0.318303  -0.387764  -0.272308   0.330768  -0.095302
    11  C   -8.744727   1.185252  -0.534684  -0.516490   1.166429   0.758907
    12  C   -2.096858   0.348689   0.095502   0.129512   0.334872  -0.000494
    13  C   -0.227890   0.033071   0.008126   0.007754   0.032642   0.009691
    14  C   -0.530170  -0.061470  -0.080295  -0.054516  -0.069698   0.007209
    15  C    9.402689  -0.861228   0.341236   0.301004  -0.858807  -0.432944
    16  C   -0.471406  -0.039205   0.186544  -0.524380   0.332034   0.159657
    17  C   -0.429984   0.326295  -0.547323   0.192194  -0.046229  -0.007405
    18  H   -0.277918   0.052103   0.140686   0.154630   0.051132   0.020399
    19  H    0.006400  -0.000858   0.015566   0.076704  -0.011475   0.224564
    20  H    0.001042   0.000581  -0.010461   0.013430  -0.000512   0.003092
    21  H    0.000749  -0.000516   0.011480  -0.010529   0.000570   0.012777
    22  H    0.004577  -0.011305   0.075489   0.012792  -0.000725  -0.025522
    23  H   -0.054578   0.019964   0.006711   0.004045   0.018438  -0.008109
    24  H   -0.002655   0.000000  -0.000238  -0.000242  -0.000017  -0.000110
    25  H    0.004459  -0.000108  -0.000012  -0.000034  -0.000109   0.000005
    26  H   -0.011802  -0.000128  -0.000055  -0.000019  -0.000143   0.000003
    27  H   -0.043226   0.000716  -0.001620  -0.000976   0.001171   0.000507
    28  H    0.064338  -0.005491   0.000177  -0.023724  -0.056346  -0.018617
    29  H   -0.194304   0.015844  -0.012772   0.001443  -0.030608   0.077431
    30  H    0.174460  -0.010213   0.013416   0.004525  -0.096286  -0.029645
    31  H    0.171512  -0.098015   0.006897   0.009645  -0.010320  -0.005159
    32  H   -0.202913  -0.027338   0.000813  -0.004365   0.016285   0.018156
    33  H    0.067963  -0.057404  -0.026051  -0.001619  -0.005665  -0.004269
               7          8          9         10         11         12
     1  C   -0.079272  -0.103831  -1.305531  -5.918788  -8.744727  -2.096858
     2  N    0.027112  -0.017646   0.192478   0.318303   1.185252   0.348689
     3  C   -0.853137   0.682804  -4.389592  -0.387764  -0.534684   0.095502
     4  C    0.675299  -0.877618  -0.374111  -0.272308  -0.516490   0.129512
     5  N   -0.019006   0.029470  -0.018808   0.330768   1.166429   0.334872
     6  C   -0.063664   0.159520   1.514657  -0.095302   0.758907  -0.000494
     7  C    5.865099   0.365231   0.121277   0.001618  -0.005602   0.001995
     8  C    0.365231   5.889814  -0.064904  -0.013967   0.005006   0.001168
     9  C    0.121277  -0.064904  10.153475  -0.123590   0.648658  -0.011681
    10  C    0.001618  -0.013967  -0.123590  20.594937   1.522579   0.140628
    11  C   -0.005602   0.005006   0.648658   1.522579  21.828162  -0.676335
    12  C    0.001995   0.001168  -0.011681   0.140628  -0.676335   8.019982
    13  C   -0.000010   0.000265   0.008995  -0.815284   0.220823   0.589967
    14  C    0.000430  -0.000895   0.006961   1.046558   0.898752  -0.078816
    15  C    0.007096   0.004871  -0.353012 -10.697828 -12.403416  -0.845259
    16  C   -0.021313   0.002855  -0.005114   0.175339   0.109254   0.039730
    17  C    0.003281  -0.025686   0.137062   0.186711   0.092059   0.038583
    18  H    0.001222   0.000810   0.015451   0.029057   0.131089   0.040411
    19  H    0.034152   0.008928  -0.025942  -0.002715   0.000560  -0.000058
    20  H    0.296662   0.012110   0.012461   0.000094  -0.000089   0.000002
    21  H    0.011826   0.297936   0.004333   0.000093  -0.000081   0.000002
    22  H    0.009336   0.034445   0.228356  -0.002474   0.000756  -0.000045
    23  H   -0.000673  -0.000577  -0.008586  -0.003903   0.358227  -0.005559
    24  H    0.000002   0.000002  -0.000107   0.043171  -0.022913   0.307049
    25  H   -0.000000  -0.000000   0.000007   0.007800  -0.002364   0.023151
    26  H   -0.000000  -0.000000  -0.000001   0.039003  -0.017292   0.014953
    27  H    0.000080   0.000044   0.000326   0.138197   0.025885   0.012027
    28  H   -0.005307  -0.000366  -0.003863  -0.001833  -0.009564  -0.001084
    29  H    0.014333  -0.001023   0.016761   0.037709   0.032682   0.003686
    30  H   -0.004933   0.000697  -0.004864  -0.052010  -0.075430  -0.015382
    31  H    0.000682  -0.004795  -0.027215  -0.044810  -0.077150  -0.016541
    32  H   -0.001118   0.013577   0.072840   0.040461   0.036731   0.004409
    33  H   -0.000246  -0.004938  -0.015675  -0.002826  -0.011162  -0.001641
              13         14         15         16         17         18
     1  C   -0.227890  -0.530170   9.402689  -0.471406  -0.429984  -0.277918
     2  N    0.033071  -0.061470  -0.861228  -0.039205   0.326295   0.052103
     3  C    0.008126  -0.080295   0.341236   0.186544  -0.547323   0.140686
     4  C    0.007754  -0.054516   0.301004  -0.524380   0.192194   0.154630
     5  N    0.032642  -0.069698  -0.858807   0.332034  -0.046229   0.051132
     6  C    0.009691   0.007209  -0.432944   0.159657  -0.007405   0.020399
     7  C   -0.000010   0.000430   0.007096  -0.021313   0.003281   0.001222
     8  C    0.000265  -0.000895   0.004871   0.002855  -0.025686   0.000810
     9  C    0.008995   0.006961  -0.353012  -0.005114   0.137062   0.015451
    10  C   -0.815284   1.046558 -10.697828   0.175339   0.186711   0.029057
    11  C    0.220823   0.898752 -12.403416   0.109254   0.092059   0.131089
    12  C    0.589967  -0.078816  -0.845259   0.039730   0.038583   0.040411
    13  C    5.268990   0.372496   0.393122   0.000374   0.000156  -0.000888
    14  C    0.372496   6.774115  -2.287009   0.007457   0.015907  -0.021691
    15  C    0.393122  -2.287009  24.411911  -0.180968  -0.173780  -0.166024
    16  C    0.000374   0.007457  -0.180968   5.272152  -0.036675   0.019084
    17  C    0.000156   0.015907  -0.173780  -0.036675   5.279978   0.019306
    18  H   -0.000888  -0.021691  -0.166024   0.019084   0.019306   0.635107
    19  H   -0.000005   0.000001  -0.000584  -0.002010  -0.000076  -0.000002
    20  H   -0.000000  -0.000000   0.000022  -0.000185   0.000208  -0.000000
    21  H   -0.000000  -0.000000   0.000017   0.000209  -0.000187  -0.000000
    22  H   -0.000003  -0.000006  -0.000638  -0.000084  -0.001852  -0.000002
    23  H   -0.002854  -0.002326  -0.005851   0.000835   0.002219  -0.000032
    24  H   -0.004681  -0.000280   0.008385   0.000119   0.000135   0.000002
    25  H    0.280767   0.025714  -0.011368  -0.000039  -0.000039  -0.000000
    26  H   -0.004359   0.317863  -0.009915   0.000075   0.000102   0.000004
    27  H   -0.013198   0.045436   0.146963   0.002758   0.001719   0.003998
    28  H   -0.000092  -0.000212   0.003447   0.423836  -0.000639  -0.000139
    29  H    0.000408   0.000716  -0.030804   0.412171   0.003086   0.007808
    30  H   -0.002060   0.001533   0.069979   0.392247  -0.001052  -0.002005
    31  H   -0.001898   0.001024   0.068645  -0.001121   0.393391  -0.001993
    32  H    0.000237   0.000174  -0.037113   0.003143   0.412537   0.007916
    33  H   -0.000046  -0.000098   0.005276  -0.000633   0.423589  -0.000142
              19         20         21         22         23         24
     1  C    0.006400   0.001042   0.000749   0.004577  -0.054578  -0.002655
     2  N   -0.000858   0.000581  -0.000516  -0.011305   0.019964   0.000000
     3  C    0.015566  -0.010461   0.011480   0.075489   0.006711  -0.000238
     4  C    0.076704   0.013430  -0.010529   0.012792   0.004045  -0.000242
     5  N   -0.011475  -0.000512   0.000570  -0.000725   0.018438  -0.000017
     6  C    0.224564   0.003092   0.012777  -0.025522  -0.008109  -0.000110
     7  C    0.034152   0.296662   0.011826   0.009336  -0.000673   0.000002
     8  C    0.008928   0.012110   0.297936   0.034445  -0.000577   0.000002
     9  C   -0.025942   0.012461   0.004333   0.228356  -0.008586  -0.000107
    10  C   -0.002715   0.000094   0.000093  -0.002474  -0.003903   0.043171
    11  C    0.000560  -0.000089  -0.000081   0.000756   0.358227  -0.022913
    12  C   -0.000058   0.000002   0.000002  -0.000045  -0.005559   0.307049
    13  C   -0.000005  -0.000000  -0.000000  -0.000003  -0.002854  -0.004681
    14  C    0.000001  -0.000000  -0.000000  -0.000006  -0.002326  -0.000280
    15  C   -0.000584   0.000022   0.000017  -0.000638  -0.005851   0.008385
    16  C   -0.002010  -0.000185   0.000209  -0.000084   0.000835   0.000119
    17  C   -0.000076   0.000208  -0.000187  -0.001852   0.002219   0.000135
    18  H   -0.000002  -0.000000  -0.000000  -0.000002  -0.000032   0.000002
    19  H    0.495026  -0.003219  -0.000119   0.000012   0.000001  -0.000000
    20  H   -0.003219   0.496972  -0.003574  -0.000119  -0.000000   0.000000
    21  H   -0.000119  -0.003574   0.496728  -0.003233  -0.000000   0.000000
    22  H    0.000012  -0.000119  -0.003233   0.495107   0.000001  -0.000000
    23  H    0.000001  -0.000000  -0.000000   0.000001   0.497908  -0.003910
    24  H   -0.000000   0.000000   0.000000  -0.000000  -0.003910   0.487429
    25  H    0.000000  -0.000000  -0.000000   0.000000  -0.000114  -0.003591
    26  H   -0.000000   0.000000   0.000000  -0.000000   0.000011  -0.000116
    27  H   -0.000000   0.000000   0.000000   0.000000  -0.000112   0.000011
    28  H   -0.000165   0.000003   0.000000   0.000000   0.000000   0.000000
    29  H   -0.000147  -0.000000  -0.000000   0.000000  -0.000002   0.000000
    30  H    0.000002  -0.000000  -0.000000  -0.000000  -0.000008  -0.000001
    31  H   -0.000000  -0.000000  -0.000000   0.000001  -0.000021  -0.000002
    32  H    0.000000  -0.000000  -0.000000  -0.000142  -0.000002   0.000000
    33  H    0.000000   0.000000   0.000003  -0.000163  -0.000003   0.000000
              25         26         27         28         29         30
     1  C    0.004459  -0.011802  -0.043226   0.064338  -0.194304   0.174460
     2  N   -0.000108  -0.000128   0.000716  -0.005491   0.015844  -0.010213
     3  C   -0.000012  -0.000055  -0.001620   0.000177  -0.012772   0.013416
     4  C   -0.000034  -0.000019  -0.000976  -0.023724   0.001443   0.004525
     5  N   -0.000109  -0.000143   0.001171  -0.056346  -0.030608  -0.096286
     6  C    0.000005   0.000003   0.000507  -0.018617   0.077431  -0.029645
     7  C   -0.000000  -0.000000   0.000080  -0.005307   0.014333  -0.004933
     8  C   -0.000000  -0.000000   0.000044  -0.000366  -0.001023   0.000697
     9  C    0.000007  -0.000001   0.000326  -0.003863   0.016761  -0.004864
    10  C    0.007800   0.039003   0.138197  -0.001833   0.037709  -0.052010
    11  C   -0.002364  -0.017292   0.025885  -0.009564   0.032682  -0.075430
    12  C    0.023151   0.014953   0.012027  -0.001084   0.003686  -0.015382
    13  C    0.280767  -0.004359  -0.013198  -0.000092   0.000408  -0.002060
    14  C    0.025714   0.317863   0.045436  -0.000212   0.000716   0.001533
    15  C   -0.011368  -0.009915   0.146963   0.003447  -0.030804   0.069979
    16  C   -0.000039   0.000075   0.002758   0.423836   0.412171   0.392247
    17  C   -0.000039   0.000102   0.001719  -0.000639   0.003086  -0.001052
    18  H   -0.000000   0.000004   0.003998  -0.000139   0.007808  -0.002005
    19  H    0.000000  -0.000000  -0.000000  -0.000165  -0.000147   0.000002
    20  H   -0.000000   0.000000   0.000000   0.000003  -0.000000  -0.000000
    21  H   -0.000000   0.000000   0.000000   0.000000  -0.000000  -0.000000
    22  H    0.000000  -0.000000   0.000000   0.000000   0.000000  -0.000000
    23  H   -0.000114   0.000011  -0.000112   0.000000  -0.000002  -0.000008
    24  H   -0.003591  -0.000116   0.000011   0.000000   0.000000  -0.000001
    25  H    0.488768  -0.003656  -0.000114  -0.000000   0.000000   0.000000
    26  H   -0.003656   0.486116  -0.003618  -0.000000   0.000000  -0.000004
    27  H   -0.000114  -0.003618   0.497813   0.000002  -0.000006  -0.000105
    28  H   -0.000000  -0.000000   0.000002   0.505476  -0.031409  -0.019072
    29  H    0.000000   0.000000  -0.000006  -0.031409   0.542346  -0.032456
    30  H    0.000000  -0.000004  -0.000105  -0.019072  -0.032456   0.509218
    31  H    0.000000  -0.000003  -0.000075   0.000000   0.000000  -0.000000
    32  H    0.000000   0.000000   0.000001   0.000000  -0.000002   0.000000
    33  H   -0.000000  -0.000000   0.000002  -0.000000   0.000000   0.000000
              31         32         33
     1  C    0.171512  -0.202913   0.067963
     2  N   -0.098015  -0.027338  -0.057404
     3  C    0.006897   0.000813  -0.026051
     4  C    0.009645  -0.004365  -0.001619
     5  N   -0.010320   0.016285  -0.005665
     6  C   -0.005159   0.018156  -0.004269
     7  C    0.000682  -0.001118  -0.000246
     8  C   -0.004795   0.013577  -0.004938
     9  C   -0.027215   0.072840  -0.015675
    10  C   -0.044810   0.040461  -0.002826
    11  C   -0.077150   0.036731  -0.011162
    12  C   -0.016541   0.004409  -0.001641
    13  C   -0.001898   0.000237  -0.000046
    14  C    0.001024   0.000174  -0.000098
    15  C    0.068645  -0.037113   0.005276
    16  C   -0.001121   0.003143  -0.000633
    17  C    0.393391   0.412537   0.423589
    18  H   -0.001993   0.007916  -0.000142
    19  H   -0.000000   0.000000   0.000000
    20  H   -0.000000  -0.000000   0.000000
    21  H   -0.000000  -0.000000   0.000003
    22  H    0.000001  -0.000142  -0.000163
    23  H   -0.000021  -0.000002  -0.000003
    24  H   -0.000002   0.000000   0.000000
    25  H    0.000000   0.000000  -0.000000
    26  H   -0.000003   0.000000  -0.000000
    27  H   -0.000075   0.000001   0.000002
    28  H    0.000000   0.000000  -0.000000
    29  H    0.000000  -0.000002   0.000000
    30  H   -0.000000   0.000000   0.000000
    31  H    0.509185  -0.032442  -0.019100
    32  H   -0.032442   0.543247  -0.031492
    33  H   -0.019100  -0.031492   0.505994
          Atomic-Atomic Spin Densities.
               1          2          3          4          5          6
     1  C    0.000000   0.000000  -0.000000   0.000000  -0.000000   0.000000
     2  N    0.000000  -0.000000  -0.000000   0.000000  -0.000000  -0.000000
     3  C   -0.000000  -0.000000   0.000000  -0.000000   0.000000   0.000000
     4  C    0.000000   0.000000  -0.000000   0.000000  -0.000000  -0.000000
     5  N   -0.000000  -0.000000   0.000000  -0.000000   0.000000   0.000000
     6  C    0.000000  -0.000000   0.000000  -0.000000   0.000000   0.000000
     7  C    0.000000   0.000000  -0.000000   0.000000  -0.000000  -0.000000
     8  C   -0.000000  -0.000000   0.000000  -0.000000   0.000000   0.000000
     9  C    0.000000  -0.000000  -0.000000   0.000000  -0.000000  -0.000000
    10  C   -0.000000   0.000000   0.000000   0.000000   0.000000   0.000000
    11  C    0.000000  -0.000000   0.000000  -0.000000  -0.000000  -0.000000
    12  C   -0.000000   0.000000   0.000000  -0.000000   0.000000  -0.000000
    13  C    0.000000  -0.000000  -0.000000  -0.000000  -0.000000  -0.000000
    14  C    0.000000   0.000000   0.000000   0.000000   0.000000   0.000000
    15  C    0.000000  -0.000000  -0.000000   0.000000  -0.000000   0.000000
    16  C   -0.000000   0.000000   0.000000  -0.000000   0.000000   0.000000
    17  C   -0.000000   0.000000  -0.000000   0.000000   0.000000  -0.000000
    18  H    0.000000  -0.000000   0.000000  -0.000000  -0.000000  -0.000000
    19  H   -0.000000   0.000000  -0.000000   0.000000  -0.000000  -0.000000
    20  H   -0.000000   0.000000  -0.000000   0.000000  -0.000000  -0.000000
    21  H   -0.000000  -0.000000   0.000000  -0.000000   0.000000   0.000000
    22  H   -0.000000   0.000000   0.000000  -0.000000   0.000000  -0.000000
    23  H   -0.000000   0.000000   0.000000  -0.000000   0.000000   0.000000
    24  H   -0.000000   0.000000   0.000000   0.000000   0.000000   0.000000
    25  H    0.000000  -0.000000  -0.000000  -0.000000  -0.000000  -0.000000
    26  H   -0.000000   0.000000   0.000000   0.000000   0.000000   0.000000
    27  H   -0.000000   0.000000   0.000000   0.000000   0.000000  -0.000000
    28  H   -0.000000   0.000000   0.000000  -0.000000   0.000000   0.000000
    29  H    0.000000  -0.000000  -0.000000   0.000000  -0.000000  -0.000000
    30  H   -0.000000   0.000000   0.000000  -0.000000   0.000000   0.000000
    31  H   -0.000000   0.000000  -0.000000   0.000000  -0.000000  -0.000000
    32  H    0.000000  -0.000000   0.000000  -0.000000   0.000000   0.000000
    33  H    0.000000   0.000000  -0.000000   0.000000  -0.000000  -0.000000
               7          8          9         10         11         12
     1  C    0.000000  -0.000000   0.000000  -0.000000   0.000000  -0.000000
     2  N    0.000000  -0.000000  -0.000000   0.000000  -0.000000   0.000000
     3  C   -0.000000   0.000000  -0.000000   0.000000   0.000000   0.000000
     4  C    0.000000  -0.000000   0.000000   0.000000  -0.000000  -0.000000
     5  N   -0.000000   0.000000  -0.000000   0.000000  -0.000000   0.000000
     6  C   -0.000000   0.000000  -0.000000   0.000000  -0.000000  -0.000000
     7  C    0.000000  -0.000000   0.000000  -0.000000  -0.000000  -0.000000
     8  C   -0.000000   0.000000  -0.000000   0.000000   0.000000   0.000000
     9  C    0.000000  -0.000000   0.000000  -0.000000  -0.000000  -0.000000
    10  C   -0.000000   0.000000  -0.000000   0.000000   0.000000   0.000000
    11  C   -0.000000   0.000000  -0.000000   0.000000   0.000000  -0.000000
    12  C   -0.000000   0.000000  -0.000000   0.000000  -0.000000   0.000000
    13  C   -0.000000   0.000000  -0.000000  -0.000000  -0.000000  -0.000000
    14  C   -0.000000   0.000000   0.000000  -0.000000   0.000000  -0.000000
    15  C    0.000000  -0.000000   0.000000  -0.000000  -0.000000  -0.000000
    16  C   -0.000000   0.000000  -0.000000   0.000000   0.000000   0.000000
    17  C    0.000000  -0.000000  -0.000000  -0.000000   0.000000   0.000000
    18  H   -0.000000   0.000000  -0.000000   0.000000  -0.000000   0.000000
    19  H    0.000000  -0.000000   0.000000  -0.000000   0.000000   0.000000
    20  H    0.000000  -0.000000   0.000000  -0.000000  -0.000000  -0.000000
    21  H   -0.000000   0.000000  -0.000000   0.000000  -0.000000  -0.000000
    22  H    0.000000   0.000000  -0.000000  -0.000000   0.000000   0.000000
    23  H   -0.000000   0.000000   0.000000  -0.000000   0.000000   0.000000
    24  H    0.000000  -0.000000   0.000000  -0.000000   0.000000  -0.000000
    25  H    0.000000  -0.000000   0.000000   0.000000   0.000000   0.000000
    26  H   -0.000000   0.000000   0.000000  -0.000000   0.000000  -0.000000
    27  H   -0.000000  -0.000000  -0.000000   0.000000   0.000000   0.000000
    28  H   -0.000000   0.000000   0.000000  -0.000000   0.000000  -0.000000
    29  H    0.000000  -0.000000  -0.000000   0.000000  -0.000000   0.000000
    30  H   -0.000000   0.000000   0.000000  -0.000000   0.000000  -0.000000
    31  H    0.000000  -0.000000   0.000000  -0.000000   0.000000  -0.000000
    32  H   -0.000000   0.000000  -0.000000   0.000000  -0.000000   0.000000
    33  H    0.000000  -0.000000   0.000000  -0.000000   0.000000  -0.000000
              13         14         15         16         17         18
     1  C    0.000000   0.000000   0.000000  -0.000000  -0.000000   0.000000
     2  N   -0.000000   0.000000  -0.000000   0.000000   0.000000  -0.000000
     3  C   -0.000000   0.000000  -0.000000   0.000000  -0.000000   0.000000
     4  C   -0.000000   0.000000   0.000000  -0.000000   0.000000  -0.000000
     5  N   -0.000000   0.000000  -0.000000   0.000000   0.000000  -0.000000
     6  C   -0.000000   0.000000   0.000000   0.000000  -0.000000  -0.000000
     7  C   -0.000000  -0.000000   0.000000  -0.000000   0.000000  -0.000000
     8  C    0.000000   0.000000  -0.000000   0.000000  -0.000000   0.000000
     9  C   -0.000000   0.000000   0.000000  -0.000000  -0.000000  -0.000000
    10  C   -0.000000  -0.000000  -0.000000   0.000000  -0.000000   0.000000
    11  C   -0.000000   0.000000  -0.000000   0.000000   0.000000  -0.000000
    12  C   -0.000000  -0.000000  -0.000000   0.000000   0.000000   0.000000
    13  C   -0.000000   0.000000   0.000000  -0.000000  -0.000000  -0.000000
    14  C    0.000000  -0.000000  -0.000000  -0.000000  -0.000000   0.000000
    15  C    0.000000  -0.000000   0.000000  -0.000000  -0.000000   0.000000
    16  C   -0.000000  -0.000000  -0.000000  -0.000000   0.000000   0.000000
    17  C   -0.000000  -0.000000  -0.000000   0.000000  -0.000000   0.000000
    18  H   -0.000000   0.000000   0.000000   0.000000   0.000000  -0.000000
    19  H    0.000000   0.000000  -0.000000  -0.000000  -0.000000  -0.000000
    20  H    0.000000  -0.000000   0.000000   0.000000  -0.000000   0.000000
    21  H    0.000000  -0.000000  -0.000000  -0.000000   0.000000   0.000000
    22  H    0.000000   0.000000  -0.000000   0.000000  -0.000000   0.000000
    23  H    0.000000  -0.000000  -0.000000   0.000000   0.000000   0.000000
    24  H    0.000000  -0.000000   0.000000  -0.000000  -0.000000  -0.000000
    25  H   -0.000000   0.000000  -0.000000   0.000000   0.000000   0.000000
    26  H   -0.000000  -0.000000   0.000000  -0.000000  -0.000000  -0.000000
    27  H   -0.000000  -0.000000  -0.000000   0.000000  -0.000000   0.000000
    28  H    0.000000  -0.000000  -0.000000  -0.000000   0.000000   0.000000
    29  H   -0.000000   0.000000   0.000000   0.000000  -0.000000  -0.000000
    30  H    0.000000  -0.000000  -0.000000  -0.000000   0.000000   0.000000
[...]
 2,0.00015692,0.00006277,-0.00003780,-0.00043399,0.00003031,0.00018950,
 0.00013178,0.00002867,0.00001351,-0.00002334,0.00000156,-0.00003073,0.
 00006349,-0.00000266,0.00001444,0.00006137,0.00003469,0.00000254,0.000
 08629,0.00003564,-0.00011867,0.09084173,-0.18726514,0.09774795,-0.0004
 4767,-0.00008597,-0.00055172,-0.00001847,0.00002247,0.00017318,-0.0008
 3353,0.00009167,-0.00007520,-0.00001325,-0.00000291,-0.00000281,-0.000
 01515,0.00002452,-0.00002297,-0.00000160,-0.00001630,0.00001202,-0.000
 00846,-0.00001269,0.00002174,0.00002290,-0.00000223,-0.00001771,0.0000
 1187,-0.00000473,-0.00000217,0.00002865,0.00000139,0.00000061,-0.00001
 561,-0.00001831,0.00001440,-0.10097903,0.21230588,-0.00136364,-0.00217
 370,-0.00057902,0.00030812,-0.00090503,0.00050805,0.00025670,-0.000197
 68,-0.00014565,-0.00001295,0.00074514,0.00069082,0.01120734,-0.0158336
 0,0.00918499,-0.00026740,0.00012243,-0.00021311,-0.00005868,-0.0002430
 5,-0.00027414,-0.00012379,0.00014206,0.00000265,0.00012065,0.00001740,
 -0.00004278,-0.00025797,0.00001348,0.00004496,0.00004092,0.00003105,0.
 00001408,-0.00001904,-0.00000887,-0.00001455,0.00002502,0.00000268,0.0
 0001266,0.00003867,0.00000350,0.00000236,0.00002262,0.00003618,-0.0000
 7216,-0.07033476,0.10508663,-0.12320935,-0.00022421,-0.00009485,-0.000
 21137,0.00016562,-0.00035460,0.00018354,-0.00031322,-0.00022087,0.0002
 3167,-0.00001066,0.00000007,0.00000695,-0.00001450,-0.00000888,0.00004
 000,0.00000822,-0.00000394,0.00000677,-0.00000923,0.00000792,0.0000037
 7,0.00000947,0.00000023,-0.00000624,0.00000370,-0.00000116,-0.00000025
 ,0.00001267,0.00000074,-0.00000043,-0.00000090,-0.00001339,0.00001040,
 0.07408588,-0.10442678,0.12639763,-0.00007372,0.00027133,0.00037396,-0
 .00033059,-0.00002923,-0.00009883,0.00046983,-0.00034258,0.00041426,0.
 00201553,0.00043063,-0.00197383,0.00343875,-0.00072164,-0.00825220,0.0
 0049063,0.00055441,0.00078576,-0.00037544,-0.00025063,0.00010341,0.000
 11304,0.00038327,-0.00002391,0.00018929,-0.00008749,0.00013930,-0.0000
 2044,-0.00016833,0.00004780,0.00005563,0.00001346,-0.00006530,-0.00000
 513,-0.00002827,-0.00001342,-0.00000284,0.00000205,0.00000646,0.000004
 20,-0.00000050,-0.00000946,0.00001623,-0.00002017,0.00005057,-0.076591
 63,-0.00259732,0.07369560,-0.00002035,-0.00004530,0.00004391,-0.000261
 54,0.00006194,0.00008320,0.00008982,0.00010111,-0.00018914,0.00002367,
 -0.00001084,0.00000389,0.00000886,0.00001533,-0.00001763,0.00001400,0.
 00002265,-0.00002034,0.00001067,0.00001133,0.00000090,-0.00000219,-0.0
 0000272,0.00000081,-0.00000117,0.00000673,-0.00000075,-0.00000487,-0.0
 0000169,0.00000038,0.00001226,0.00001282,-0.00001895,0.00548508,-0.000
 06980,-0.01496847,0.07247134,-0.00159469,0.00316379,-0.00496975,-0.000
 16385,-0.00001483,0.00047239,-0.00021560,-0.00131835,0.00068442,0.0065
 3491,0.00263575,-0.00050430,0.00427271,-0.01338736,-0.03613155,-0.0009
 1727,0.00057134,0.00030101,0.00000907,-0.00013297,0.00015217,-0.000540
 68,0.00011373,-0.00011667,0.00057489,0.00009360,0.00019068,0.00006235,
 -0.00015701,0.00044171,0.00002439,-0.00001618,-0.00002924,-0.00000756,
 -0.00000495,0.00003777,0.00004460,-0.00000470,0.00001775,0.00004445,0.
 00001699,-0.00000200,0.00004065,0.00001856,-0.00007664,-0.00239809,-0.
 05008299,0.01012605,-0.00009144,0.00010399,0.00003450,-0.00024927,0.00
 059913,0.00166206,-0.00001516,-0.00004830,-0.00026505,-0.00005343,0.00
 000200,-0.00000521,-0.00002032,-0.00000943,-0.00002718,0.00000819,-0.0
 0003310,-0.00004667,0.00000437,-0.00000100,0.00006045,0.00000205,0.000
 00015,-0.00000606,0.00000721,0.00000289,0.00000132,0.00001372,0.000002
 54,-0.00000039,-0.00000207,0.00000297,0.00001004,-0.00845516,0.0010342
 6,0.02061934,0.00356248,0.05670185,-0.00141459,0.00142947,0.00097196,0
 .00048251,0.00025405,0.00034494,-0.00154455,-0.00162441,-0.00003756,0.
 00503814,0.00219659,0.00107084,-0.00241398,-0.01585668,-0.01687006,-0.
 00054420,0.00030348,-0.00027178,-0.00014045,-0.00059880,-0.00018340,-0
 .00115380,0.00047868,-0.00016109,0.00126051,0.00017123,0.00012452,-0.0
 0001491,-0.00010506,-0.00005154,0.00008001,0.00004027,0.00008803,0.000
 00374,-0.00000798,-0.00000526,0.00006087,0.00000810,-0.00000920,0.0000
 4046,0.00001798,0.00002240,0.00007357,-0.00002054,-0.00016944,0.073541
 62,0.01074649,-0.27011854,-0.00009472,0.00017206,-0.00022315,0.0008756
 5,-0.00122281,0.00011960,0.00001344,0.00004433,0.00015142,-0.00009649,
 0.00000596,-0.00002567,-0.00005723,-0.00001319,0.00003602,-0.00000458,
 -0.00007067,-0.00000414,-0.00001038,-0.00000866,0.00005334,0.00002250,
 -0.00000876,-0.00001751,0.00001544,-0.00000162,-0.00000140,0.00003078,
 0.00000488,0.00000259,-0.00001709,-0.00001834,0.00001933,0.00612742,0.
 00040148,-0.01348849,-0.07986207,0.00248033,0.29824307,-0.00027948,0.0
 0100408,-0.00064485,0.00005512,-0.00029612,0.00007051,-0.00047940,-0.0
 0009998,-0.00017050,0.00232073,-0.00042873,0.00023697,-0.00489393,-0.0
 0314022,-0.00167861,0.00008570,0.00003252,0.00008316,0.00000890,-0.000
 00847,-0.00000532,-0.00015768,-0.00002017,-0.00003002,0.00015912,-0.00
 013706,0.00004957,0.00025288,0.00019912,0.00024476,0.00020193,0.000084
 22,-0.00017617,-0.00010380,-0.00008451,-0.00001483,0.00004248,-0.00002
 343,0.00008717,0.00009032,0.00008252,-0.00007789,-0.00017177,0.0001544
 2,0.00003576,-0.31534216,-0.04723509,0.01050280,-0.00004102,0.00010289
 ,-0.00005287,0.00002908,0.00000043,0.00021898,0.00008554,-0.00004293,0
 .00001643,-0.00004437,-0.00000545,0.00000011,-0.00001966,-0.00001213,-
 0.00000134,-0.00003445,-0.00003610,-0.00001237,0.00001710,0.00000068,0
 .00000582,0.00000058,0.00000249,-0.00000465,0.00000280,0.00000195,0.00
 000097,0.00000749,-0.00001669,0.00000188,0.00002157,-0.00005602,0.0000
 2139,-0.01177582,-0.00289099,0.00167528,-0.00724065,-0.00049012,-0.000
 28967,0.33716388,-0.00144687,0.00049263,0.00028171,0.00019490,0.000314
 80,-0.00000626,-0.00203915,-0.00040258,-0.00052901,0.00213052,-0.00519
 366,-0.00080953,-0.03594527,-0.01004016,-0.00363475,0.00024465,-0.0001
 6790,0.00016838,-0.00017417,0.00006933,-0.00005753,-0.00014918,0.00011
 065,-0.00005171,0.00045305,-0.00050875,0.00007591,0.00047181,-0.000553
 50,-0.00006743,0.00001846,-0.00000073,-0.00015217,-0.00005218,0.000008
 66,-0.00001428,-0.00006375,0.00000587,0.00003613,0.00001417,-0.0000180
 2,0.00004686,0.00022717,-0.00003616,0.00007137,-0.03869967,-0.05570661
 ,0.00168008,0.00008591,0.00009045,0.00000563,0.00014271,-0.00017611,0.
 00013206,-0.00008598,0.00029608,0.00007499,-0.00006215,-0.00001526,-0.
 00000462,-0.00003038,0.00000430,0.00001015,-0.00014460,-0.00009681,0.0
 0001328,-0.00000194,0.00001007,0.00003445,-0.00000880,-0.00000777,0.00
 001355,-0.00001050,0.00000174,0.00000438,-0.00001405,0.00000577,-0.000
 00614,-0.00001740,0.00002067,-0.00001257,0.02263545,0.00601295,-0.0022
 3382,-0.00108884,0.00024135,0.00091898,0.05341679,0.06526546,-0.000001
 84,0.00051250,0.00044747,0.00004904,0.00011096,-0.00010295,-0.00110128
 ,-0.00027188,-0.00006058,0.00063180,-0.00283566,0.00035449,-0.01933683
 ,-0.00364770,-0.00131311,0.00005687,-0.00016580,-0.00005986,-0.0000240
 5,-0.00000238,0.00002243,-0.00015106,-0.00000241,-0.00001947,0.0002182
 3,-0.00026728,0.00000731,-0.00005432,-0.00018837,0.00010990,-0.0000113
 2,0.00005008,0.00002418,0.00008010,0.00001434,-0.00000672,-0.00000630,
 0.00000179,-0.00007261,-0.00007208,-0.00000439,0.00005448,0.00012456,-
 0.00001239,-0.00005811,0.01573467,0.00172660,-0.04999346,0.00002507,0.
 00007187,-0.00007363,0.00016208,-0.00008475,-0.00010691,0.00012103,0.0
 0007769,-0.00000674,-0.00004413,-0.00000616,-0.00000536,-0.00002178,-0
 .00000910,-0.00000514,-0.00007615,-0.00005833,-0.00001753,-0.00001540,
 0.00001387,0.00000253,0.00000480,-0.00000196,-0.00000418,0.00000116,-0
 .00000028,-0.00000367,0.00000672,-0.00000592,-0.00000126,0.00000565,0.
 00002365,-0.00001580,-0.01596336,-0.00384278,0.00084391,0.02979391,0.0
 0484318,0.00028605,-0.01013379,0.00399249,0.04973316,-0.00024208,-0.00
 099881,-0.00067256,-0.00486035,0.00314937,-0.00161151,0.00233594,0.000
 41439,0.00025540,-0.00047604,0.00010704,-0.00016698,0.00005345,0.00029
 902,0.00007565,0.00016006,0.00013594,0.00005132,-0.00015870,0.00002127
 ,-0.00003134,0.00000929,0.00000847,-0.00000373,0.00008042,-0.00003527,
 0.00008221,0.00020993,-0.00023193,0.00021666,0.00017934,-0.00010246,-0
 .00015202,-0.00007877,0.00008285,-0.00001740,0.00003357,0.00002492,0.0
 0007119,0.00008155,-0.00007218,-0.00006123,-0.00011254,-0.00010836,0.0
 0003222,-0.00004193,-0.00010211,-0.00005524,-0.31525979,0.04736284,0.0
 1157079,0.00002276,-0.00000134,0.00022004,-0.00003438,0.00003638,-0.00
 001214,-0.00001970,0.00001230,-0.00000127,-0.00004458,0.00000552,0.000
 00021,0.00008746,0.00004163,0.00001636,0.00001947,0.00000006,0.0000079
 2,0.00000114,-0.00000098,-0.00000485,0.00000320,-0.00000299,0.00000053
 ,0.00000713,0.00001344,0.00000161,0.00001904,0.00005473,0.00001553,0.0
 0000222,0.00002542,0.00000485,0.00000149,0.00001931,0.00002828,0.00003
 516,0.00001290,0.00000946,0.33703885,0.00145292,0.00050617,-0.00028000
 ,0.03631376,-0.01025344,0.00344807,-0.00215765,-0.00525243,0.00069565,
 0.00205871,-0.00042270,0.00052679,-0.00019221,0.00031667,0.00001626,-0
 .00045886,-0.00051216,-0.00008216,0.00015161,0.00010958,0.00005567,0.0
 0017501,0.00006846,0.00005776,-0.00024963,-0.00016552,-0.00017152,-0.0
 0051429,-0.00066027,0.00006607,-0.00001647,0.00000211,0.00015272,0.000
 03883,0.00001081,0.00001286,0.00006710,0.00000626,-0.00002203,0.000000
 87,-0.00002169,-0.00005633,-0.00021247,0.00001015,-0.00007670,-0.00008
 666,0.00009208,-0.00000359,0.03875215,-0.05576598,-0.00183811,-0.00014
 760,-0.00017377,-0.00013302,0.00014594,-0.00009782,-0.00001449,0.00003
 084,0.00000424,-0.00001045,0.00006290,-0.00001560,0.00000460,0.0000854
 6,0.00029673,-0.00007159,0.00000293,0.00000997,-0.00003539,0.00000910,
 -0.00000744,-0.00001324,0.00001036,0.00000154,-0.00000407,0.00001340,0
 .00000518,0.00000610,0.00001636,0.00002342,0.00001252,0.00000315,0.000
 01388,0.00001110,0.00001088,-0.00001157,-0.00001574,-0.00001310,-0.000
 02897,-0.00001588,-0.05356805,0.06564117,0.00002712,-0.00051212,0.0004
 3773,-0.01861863,0.00349815,-0.00117663,0.00058617,0.00272931,0.000416
 48,-0.00105926,0.00026336,-0.00004477,0.00004767,-0.00010544,-0.000105
 69,0.00020883,0.00025634,0.00000862,-0.00014707,0.00000567,-0.00001942
 ,-0.00002046,0.00000287,0.00002501,0.00005008,0.00016523,-0.00006174,-
 0.00007737,0.00018383,0.00008800,-0.00001536,-0.00006291,0.00002887,0.
 00008018,-0.00001317,-0.00000616,-0.00000478,-0.00000195,-0.00007108,-
 0.00006737,0.00000068,0.00005057,0.00012246,0.00003119,-0.00006256,0.0
 0002325,-0.00006838,-0.00007361,0.01663803,-0.00189124,-0.05007920,0.0
 0016098,0.00007974,-0.00010665,-0.00007310,0.00005659,-0.00001705,-0.0
 0002102,0.00000924,-0.00000517,-0.00004274,0.00000600,-0.00000511,0.00
 012323,-0.00007352,-0.00001034,-0.00001909,-0.00001461,0.00000103,0.00
 000467,0.00000102,-0.00000451,0.00000115,0.00000044,-0.00000376,0.0000
 0694,0.00000685,-0.00000169,0.00000517,-0.00001916,-0.00001529,-0.0000
 0715,0.00001269,0.00000395,-0.00000367,0.00000202,0.00002457,0.0000094
 3,0.00001530,0.00001243,-0.01133944,-0.00365072,0.04963709,-0.00007596
 ,-0.00027709,0.00037557,0.00343496,0.00086892,-0.00820414,0.00199106,-
 0.00038249,-0.00197327,0.00046655,0.00033709,0.00041729,-0.00033003,0.
 00003030,-0.00009817,0.00019245,0.00008520,0.00014144,0.00011103,-0.00
 038569,-0.00002807,-0.00037664,0.00025231,0.00010696,0.00049396,-0.000
 57146,0.00077602,-0.00001971,0.00017224,0.00004413,0.00004610,-0.00001
 971,-0.00006201,0.00000532,0.00002634,-0.00001276,-0.00000558,-0.00000
 082,-0.00000014,-0.00000134,0.00000219,-0.00000349,0.00002147,0.000018
 71,0.00004870,-0.00002027,0.00004445,0.00004522,-0.07651613,0.00119671
 ,0.07365445,-0.00025769,-0.00006842,0.00008861,0.00001394,-0.00002229,
 -0.00002070,0.00000882,-0.00001515,-0.00001830,0.00002381,0.00001069,0
 .00000397,0.00008901,-0.00009837,-0.00019326,0.00001303,-0.00000936,0.
 00000236,-0.00000225,0.00000355,0.00000083,-0.00000108,-0.00000695,-0.
 00000068,-0.00000497,0.00000025,0.00000024,0.00001124,-0.00001224,-0.0
 0001712,0.00000268,-0.00000589,-0.00000642,0.00001758,0.00000133,-0.00
 001999,0.00000151,-0.00001074,-0.00000414,-0.00722917,0.00051019,0.029
 80920,0.07240163,0.00163302,0.00311532,0.00500463,-0.00422363,-0.01439
 915,0.03621092,-0.00663257,0.00267578,0.00052219,0.00025096,-0.0013476
 0,-0.00070677,0.00014877,-0.00000563,-0.00047629,-0.00060661,0.0001013
 7,-0.00019135,0.00056810,0.00012394,0.00012487,-0.00000428,-0.00014634
 ,-0.00015340,0.00093028,0.00058406,-0.00029080,-0.00005939,-0.00016115
 ,-0.00043611,-0.00002529,-0.00001425,0.00002896,0.00000077,-0.00000393
 ,-0.00004066,-0.00004441,-0.00000537,-0.00001169,-0.00004154,0.0000163
 2,-0.00000417,-0.00005189,0.00001867,0.00007939,0.00009458,0.00010741,
 -0.00002617,0.00098753,-0.04969395,-0.00587039,0.00023351,0.00060195,-
 0.00165053,-0.00000804,-0.00003544,0.00004642,0.00002163,-0.00001019,0
 .00002618,0.00005574,0.00000191,0.00000596,0.00001456,-0.00005204,0.00
 026181,-0.00000246,0.00000298,-0.00006658,-0.00000277,-0.00000031,0.00
 000658,-0.00000782,0.00000239,-0.00000154,-0.00001460,0.00000175,0.000
 00035,0.00000179,0.00000152,-0.00001034,0.00001242,-0.00001875,-0.0000
 1252,-0.00000092,-0.00006510,-0.00003490,-0.00001971,-0.00001191,-0.00
 000273,0.00050521,0.00035125,-0.00487809,-0.00202790,0.05683574,-0.001
 38884,-0.00138868,0.00102150,-0.00250325,0.01591677,-0.01582601,0.0049
 1429,-0.00217277,0.00104214,-0.00153730,0.00160430,-0.00002526,0.00048
 668,-0.00025429,0.00032622,0.00124969,-0.00017401,0.00011708,-0.001143
 80,-0.00047079,-0.00017229,-0.00013985,0.00059780,-0.00017284,-0.00053
 093,-0.00028523,-0.00028496,-0.00000724,0.00010455,-0.00006461,0.00008
 058,-0.00002991,0.00008621,0.00000447,0.00000651,-0.00000359,0.0000610
 6,-0.00000735,-0.00000963,0.00004125,-0.00001499,0.00002331,0.00007218
 ,0.00001508,-0.00016907,-0.00009304,-0.00016504,-0.00022617,0.07350678
 ,-0.00650044,-0.27062472,0.00088154,0.00123720,0.00010045,-0.00000480,
 0.00006998,-0.00000230,-0.00005689,0.00001254,0.00003751,-0.00009566,-
 0.00000535,-0.00002579,0.00001310,-0.00004819,0.00015529,-0.00001317,0
 .,0.00005733,0.00002267,0.00000795,-0.00001778,0.00001567,0.00000197,-
 0.00000136,0.00003090,-0.00000355,0.00000267,-0.00001850,0.00001791,0.
 00002013,-0.00001588,0.00006561,0.00002752,-0.00001990,0.00003228,0.00
 005304,0.00002767,0.00001493,0.00002507,-0.00027277,-0.00091677,0.0001
 6152,-0.07984829,-0.00714446,0.29826326,-0.00016924,0.00117074,-0.0001
 7056,0.00472873,0.00683533,0.00433585,-0.00030436,0.00020349,0.0005961
 0,0.00029981,0.00000619,-0.00002133,-0.00008442,0.00031273,-0.00004645
 ,-0.00000506,-0.00005482,-0.00008520,0.00005841,-0.00005942,0.00002174
 ,0.00005154,0.00009411,-0.00044018,-0.00085834,0.00084202,-0.00012877,
 0.00021180,-0.00006734,-0.00001933,0.00001684,-0.00002541,-0.00010194,
 -0.00002628,0.00000484,-0.00000137,-0.00002019,0.00000242,0.00002653,0
 .00001798,-0.00001472,-0.00000876,0.00004431,-0.00005647,0.00008735,0.
 00000015,0.00005447,-0.00001829,-0.11230446,-0.09559041,-0.07022510,-0
 .00011220,-0.00000998,-0.00002527,0.00001644,-0.00002030,0.00001148,-0
 .00000060,-0.00001181,0.00007925,0.00004032,-0.00000780,0.00000527,-0.
 00198530,0.00065323,0.00006410,-0.00000286,0.00000960,0.00000112,-0.00
 000667,-0.00000094,0.00000781,-0.00000516,0.00000358,0.00000246,-0.000
 00880,0.00000120,-0.00000180,0.00000051,0.00002261,0.00000760,0.000008
 37,0.00001330,0.00000011,0.00000264,-0.00001200,-0.00001623,0.00000231
 ,-0.00000287,-0.00000733,-0.01182342,-0.02229548,-0.01638805,0.0054946
 5,0.00831499,0.00628157,0.11672255,0.00434805,-0.00181267,0.00280908,-
 0.01687969,-0.02892735,-0.01251713,-0.00191210,0.00101390,-0.00076509,
 -0.00051998,-0.00067629,0.00003127,-0.00058176,-0.00171551,-0.00079205
 ,-0.00016037,0.00006342,0.00004013,0.00016612,0.00014740,0.00001906,0.
 00021227,0.00003825,-0.00003311,0.00056395,-0.00024766,0.00008877,0.00
 043268,0.00002625,-0.00018619,-0.00012955,0.00002641,-0.00001686,0.000
 02138,0.00000203,0.00003090,-0.00006265,-0.00000317,-0.00001200,-0.000
 06078,0.00003074,-0.00000667,-0.00009453,0.00003753,0.00012145,0.00045
 064,-0.00010096,0.00055373,-0.08954172,-0.18298331,-0.09869808,0.00001
 329,0.00001590,-0.00017900,0.00000149,-0.00001612,-0.00001257,0.000015
 62,0.00002385,0.00002206,0.00001360,-0.00000288,0.00000274,0.00084644,
 0.00008209,0.00006441,0.00000903,-0.00001080,-0.00002359,-0.00002333,-
 0.00000232,0.00001794,-0.00001200,-0.00000466,0.00000229,-0.00002913,0
 .00000057,-0.00000059,0.00001551,-0.00001826,-0.00001332,-0.00001371,-
 0.00022835,-0.00010721,0.00000586,-0.00001707,-0.00006621,-0.00002513,
 0.00001409,-0.00001286,0.00289147,0.00591972,0.00396479,0.00035413,0.0
 0142876,-0.00012353,0.09968492,0.20789647,-0.00127916,0.00214879,-0.00
 048080,0.01091288,0.01508309,0.00926886,-0.00004388,-0.00074298,0.0006
 6272,0.00024788,0.00018797,-0.00014177,0.00029880,0.00086143,0.0005066
 2,0.00011877,-0.00001560,-0.00004213,-0.00012198,-0.00013984,0.0000003
 1,-0.00005488,0.00025004,-0.00027071,-0.00027836,-0.00012738,-0.000252
 74,-0.00024528,-0.00001184,0.00003678,0.00003728,-0.00003225,0.0000165
 6,-0.00001735,0.00000817,-0.00001506,0.00002315,-0.00000223,0.00001099
 ,0.00003620,-0.00000184,0.00000350,0.00002483,-0.00003248,-0.00006898,
 -0.00021481,0.00009791,-0.00019978,-0.07222406,-0.10606132,-0.12720164
 ,0.00016574,0.00035788,0.00017885,0.00000820,0.00000355,0.00000667,-0.
 00001427,0.00000892,0.00004054,-0.00001066,-0.00000016,0.00000698,-0.0
 0029573,0.00022083,0.00023052,-0.00001044,-0.00001011,0.00000411,0.000
 00920,0.00000003,-0.00000589,0.00000347,0.00000100,-0.00000030,0.00001
 226,-0.00000040,-0.00000035,-0.00000153,0.00001190,0.00000953,0.,0.000
 10223,0.00004085,-0.00000624,0.00001123,0.00002652,0.00000422,-0.00001
 082,0.00000365,0.00174223,0.00234561,0.00097456,-0.01500407,-0.0203087
 6,-0.01389389,0.07617760,0.10579743,0.13054494\\0.00000146,0.00000339,
 0.00000254,0.00000966,-0.00000246,-0.00000792,-0.00001046,0.00000455,0
 .00000167,0.00000765,-0.00000223,-0.00000227,-0.00000701,-0.00000087,-
 0.00000139,-0.00000383,-0.00000004,-0.00000600,0.00000142,0.00000068,-
 0.00000422,0.00000090,-0.00000139,-0.00000482,0.00000275,-0.00000058,-
 0.00000173,-0.00000077,-0.00000192,0.00000142,0.00000139,-0.00000168,0
 .00000139,0.00000196,-0.00000102,0.00000185,0.00000139,-0.00000127,0.0
 0000454,-0.00000117,0.00000245,0.00000522,-0.00000037,0.00000168,0.000
 00357,0.00000089,0.00000074,-0.00000428,-0.00000043,-0.00000120,0.0000
 0923,-0.00000203,0.00000067,-0.00000030,0.00000016,-0.00000094,-0.0000
 0719,0.00000179,-0.00000242,-0.00000738,-0.00000072,-0.00000215,-0.000
 00424,0.00000088,-0.00000089,0.00000046,0.00000264,-0.00000275,0.00000
 156,0.00000251,-0.00000355,0.00000608,0.00000086,-0.00000073,0.0000062
 4,-0.00000156,0.00000276,0.00000557,-0.00000222,0.00000349,0.00000267,
 -0.00000060,0.00000017,-0.00000682,-0.00000266,0.00000320,-0.00000416,
 -0.00000324,0.00000028,-0.00000201,-0.00000063,0.00000147,0.00000468,-
 0.00000146,0.00000282,0.00000244,0.00000083,-0.00000025,0.00000357\\\@
 The archive entry for this job was punched.


 IT WAS A GAME, A VERY INTERESTING GAME ONE COULD
 PLAY.  WHENEVER ONE SOLVED ONE OF THE LITTLE PROBLEMS,
 ONE COULD WRITE A PAPER ABOUT IT.  IT WAS VERY EASY IN
 THOSE DAYS FOR ANY SECOND-RATE PHYSICIST TO DO
 FIRST-RATE WORK.  THERE HAS NOT BEEN SUCH A GLORIOUS
 TIME SINCE.  IT IS VERY DIFFICULT NOW FOR A FIRST-RATE
 PHYSICIST TO DO SECOND-RATE WORK.
     P.A.M. DIRAC, ON THE EARLY DAYS OF QUANTUM MECHANICS
                   DIRECTIONS IN PHYSICS, 1978, P. 7
 Job cpu time:       0 days  7 hours 18 minutes 55.0 seconds.
 Elapsed time:       0 days  0 hours 23 minutes 51.7 seconds.
 File lengths (MBytes):  RWF=   1143 Int=      0 D2E=      0 Chk=     29 Scr=      1
 Normal termination of Gaussian 16 at Fri Nov 11 13:15:24 2022.
