 Default is to use a total of   4 processors:
                                4 via shared-memory
                                1 via Linda
 Entering Link 1 = D:\study\G16W\l1.exe PID=      9488.
  
 Copyright (c) 1988,1990,1992,1993,1995,1998,2003,2009,2016,
            Gaussian, Inc.  All Rights Reserved.
  
 This is part of the Gaussian(R) 16 program.  It is based on
 the Gaussian(R) 09 system (copyright 2009, Gaussian, Inc.),
 the Gaussian(R) 03 system (copyright 2003, Gaussian, Inc.),
 the Gaussian(R) 98 system (copyright 1998, Gaussian, Inc.),
 the Gaussian(R) 94 system (copyright 1995, Gaussian, Inc.),
 the Gaussian 92(TM) system (copyright 1992, Gaussian, Inc.),
 the Gaussian 90(TM) system (copyright 1990, Gaussian, Inc.),
 the Gaussian 88(TM) system (copyright 1988, Gaussian, Inc.),
 the Gaussian 86(TM) system (copyright 1986, Carnegie Mellon
 University), and the Gaussian 82(TM) system (copyright 1983,
 Carnegie Mellon University). Gaussian is a federally registered
 trademark of Gaussian, Inc.
  
 This software contains proprietary and confidential information,
 including trade secrets, belonging to Gaussian, Inc.
  
 This software is provided under written license and may be
 used, copied, transmitted, or stored only in accord with that
 written license.
  
 The following legend is applicable only to US Government
 contracts under FAR:
  
                    RESTRICTED RIGHTS LEGEND
  
 Use, reproduction and disclosure by the US Government is
 subject to restrictions as set forth in subparagraphs (a)
 and (c) of the Commercial Computer Software - Restricted
 Rights clause in FAR 52.227-19.
  
 Gaussian, Inc.
 340 Quinnipiac St., Bldg. 40, Wallingford CT 06492
  
  
 ---------------------------------------------------------------
 Warning -- This program may not be used in any manner that
 competes with the business of Gaussian, Inc. or will provide
 assistance to any competitor of Gaussian, Inc.  The licensee
 of this program is prohibited from giving any competitor of
 Gaussian, Inc. access to this program.  By using this program,
 the user acknowledges that Gaussian, Inc. is engaged in the
 business of creating and licensing software in the field of
 computational chemistry and represents and warrants to the
 licensee that it is not a competitor of Gaussian, Inc. and that
 it will not use this program in any manner prohibited above.
 ---------------------------------------------------------------
  

 Cite this work as:
 Gaussian 16, Revision A.03,
 M. J. Frisch, G. W. Trucks, H. B. Schlegel, G. E. Scuseria, 
 M. A. Robb, J. R. Cheeseman, G. Scalmani, V. Barone, 
 G. A. Petersson, H. Nakatsuji, X. Li, M. Caricato, A. V. Marenich, 
 J. Bloino, B. G. Janesko, R. Gomperts, B. Mennucci, H. P. Hratchian, 
 J. V. Ortiz, A. F. Izmaylov, J. L. Sonnenberg, D. Williams-Young, 
 F. Ding, F. Lipparini, F. Egidi, J. Goings, B. Peng, A. Petrone, 
 T. Henderson, D. Ranasinghe, V. G. Zakrzewski, J. Gao, N. Rega, 
 G. Zheng, W. Liang, M. Hada, M. Ehara, K. Toyota, R. Fukuda, 
 J. Hasegawa, M. Ishida, T. Nakajima, Y. Honda, O. Kitao, H. Nakai, 
 T. Vreven, K. Throssell, J. A. Montgomery, Jr., J. E. Peralta, 
 F. Ogliaro, M. J. Bearpark, J. J. Heyd, E. N. Brothers, K. N. Kudin, 
 V. N. Staroverov, T. A. Keith, R. Kobayashi, J. Normand, 
 K. Raghavachari, A. P. Rendell, J. C. Burant, S. S. Iyengar, 
 J. Tomasi, M. Cossi, J. M. Millam, M. Klene, C. Adamo, R. Cammi, 
 J. W. Ochterski, R. L. Martin, K. Morokuma, O. Farkas, 
 J. B. Foresman, and D. J. Fox, Gaussian, Inc., Wallingford CT, 2016.
 
 ******************************************
 Gaussian 16:  EM64W-G16RevA.03 17-Dec-2016
                11-May-2020 
 ******************************************
 ---------------------------
 # B2PLYPD3/cc-pVTZ opt freq
 ---------------------------
 1/18=20,19=15,38=1/1,3;
 2/9=110,12=2,17=6,18=5,40=1/2;
 3/5=16,6=1,11=9,25=1,30=1,71=1,74=-60/1,2,3;
 4//1;
 5/5=2,38=5/2;
 8/6=4,10=1/1;
 9/15=2,16=-3/6;
 10/5=1/2;
 6/7=2,8=2,9=2,10=2/1;
 7/12=2/1,2,3,16;
 1/18=20,19=15/3(2);
 2/9=110/2;
 99//99;
 2/9=110/2;
 3/5=16,6=1,11=9,25=1,30=1,71=1,74=-60/1,2,3;
 4/5=5,16=3,69=1/1;
 5/5=2,38=5/2;
 8/6=4,10=1/1;
 9/15=2,16=-3/6;
 10/5=1/2;
 7/12=2/1,2,3,16;
 1/18=20,19=15/3(-8);
 2/9=110/2;
 6/7=2,8=2,9=2,10=2/1;
 99//99;
 ----
 test
 ----
 Symbolic Z-matrix:
 Charge =  0 Multiplicity = 2
 C                     0.0159   -0.69415   0. 
 H                    -0.45406  -1.13121   0.88594 
 H                     1.07731  -0.96173   0. 
 H                    -0.45406  -1.13121  -0.88594 
 C                    -0.1562    0.81555   0. 
 H                     0.33631   1.24785  -0.88658 
 H                     0.33631   1.24785   0.88658 
 

 GradGradGradGradGradGradGradGradGradGradGradGradGradGradGradGradGradGrad
 Berny optimization.
 Initialization pass.
                           ----------------------------
                           !    Initial Parameters    !
                           ! (Angstroms and Degrees)  !
 --------------------------                            --------------------------
 ! Name  Definition              Value          Derivative Info.                !
 --------------------------------------------------------------------------------
 ! R1    R(1,2)                  1.094          estimate D2E/DX2                !
 ! R2    R(1,3)                  1.0946         estimate D2E/DX2                !
 ! R3    R(1,4)                  1.094          estimate D2E/DX2                !
 ! R4    R(1,5)                  1.5195         estimate D2E/DX2                !
 ! R5    R(5,6)                  1.1025         estimate D2E/DX2                !
 ! R6    R(5,7)                  1.1025         estimate D2E/DX2                !
 ! A1    A(2,1,3)              108.596          estimate D2E/DX2                !
 ! A2    A(2,1,4)              108.1599         estimate D2E/DX2                !
 ! A3    A(2,1,5)              110.383          estimate D2E/DX2                !
 ! A4    A(3,1,4)              108.596          estimate D2E/DX2                !
 ! A5    A(3,1,5)              110.6529         estimate D2E/DX2                !
 ! A6    A(4,1,5)              110.383          estimate D2E/DX2                !
 ! A7    A(1,5,6)              109.8155         estimate D2E/DX2                !
 ! A8    A(1,5,7)              109.8155         estimate D2E/DX2                !
 ! A9    A(6,5,7)              107.0594         estimate D2E/DX2                !
 ! D1    D(2,1,5,6)            178.9743         estimate D2E/DX2                !
 ! D2    D(2,1,5,7)             61.504          estimate D2E/DX2                !
 ! D3    D(3,1,5,6)             58.7351         estimate D2E/DX2                !
 ! D4    D(3,1,5,7)            -58.7351         estimate D2E/DX2                !
 ! D5    D(4,1,5,6)            -61.504          estimate D2E/DX2                !
 ! D6    D(4,1,5,7)           -178.9743         estimate D2E/DX2                !
 --------------------------------------------------------------------------------
 Trust Radius=3.00D-01 FncErr=1.00D-07 GrdErr=1.00D-07 EigMax=2.50D+02 EigMin=1.00D-04
 Number of steps in this run=     31 maximum allowed number of steps=    100.
 GradGradGradGradGradGradGradGradGradGradGradGradGradGradGradGradGradGrad

                          Input orientation:                          
 ---------------------------------------------------------------------
 Center     Atomic      Atomic             Coordinates (Angstroms)
 Number     Number       Type             X           Y           Z
 ---------------------------------------------------------------------
      1          6           0        0.015897   -0.694146    0.000000
      2          1           0       -0.454065   -1.131208    0.885938
      3          1           0        1.077310   -0.961733    0.000000
      4          1           0       -0.454065   -1.131208   -0.885938
      5          6           0       -0.156198    0.815554    0.000000
      6          1           0        0.336312    1.247849   -0.886576
      7          1           0        0.336312    1.247849    0.886576
 ---------------------------------------------------------------------
                    Distance matrix (angstroms):
                    1          2          3          4          5
     1  C    0.000000
     2  H    1.093972   0.000000
     3  H    1.094624   1.777278   0.000000
     4  H    1.093972   1.771876   1.777278   0.000000
     5  C    1.519477   2.159513   2.163398   2.159513   0.000000
     6  H    2.158709   3.070247   2.493461   2.506912   1.102480
     7  H    2.158709   2.506912   2.493461   3.070247   1.102480
                    6          7
     6  H    0.000000
     7  H    1.773152   0.000000
 Stoichiometry    C2H5(2)
 Framework group  CS[SG(C2H),X(H4)]
 Deg. of freedom     9
 Full point group                 CS      NOp   2
 Largest Abelian subgroup         CS      NOp   2
 Largest concise Abelian subgroup CS      NOp   2
                         Standard orientation:                         
 ---------------------------------------------------------------------
 Center     Atomic      Atomic             Coordinates (Angstroms)
 Number     Number       Type             X           Y           Z
 ---------------------------------------------------------------------
      1          6           0       -0.062824   -0.691480    0.000000
      2          1           0       -0.579262   -1.072503    0.885938
      3          1           0        0.961453   -1.077560    0.000000
      4          1           0       -0.579262   -1.072503   -0.885938
      5          6           0       -0.062824    0.827997    0.000000
      6          1           0        0.475478    1.201729   -0.886576
      7          1           0        0.475478    1.201729    0.886576
 ---------------------------------------------------------------------
 Rotational constants (GHZ):          96.8856701          22.4805602          21.4168575
 Standard basis: CC-pVTZ (5D, 7F)
 There are    89 symmetry adapted cartesian basis functions of A'  symmetry.
 There are    56 symmetry adapted cartesian basis functions of A"  symmetry.
 There are    78 symmetry adapted basis functions of A'  symmetry.
 There are    52 symmetry adapted basis functions of A"  symmetry.
   130 basis functions,   189 primitive gaussians,   145 cartesian basis functions
     9 alpha electrons        8 beta electrons
       nuclear repulsion energy        36.7362893799 Hartrees.
 NAtoms=    7 NActive=    7 NUniq=    5 SFac= 1.96D+00 NAtFMM=   60 NAOKFM=F Big=F
 Integral buffers will be    131072 words long.
 Regular integral format.
 Two-electron integral symmetry is turned on.
 Nuclear repulsion after empirical dispersion term =       36.7342825956 Hartrees.
 One-electron integrals computed using PRISM.
 NBasis=   130 RedAO= T EigKep=  1.34D-03  NBF=    78    52
 NBsUse=   130 1.00D-06 EigRej= -1.00D+00 NBFU=    78    52
 ExpMin= 1.03D-01 ExpMax= 8.24D+03 ExpMxC= 2.81D+02 IAcc=3 IRadAn=         5 AccDes= 0.00D+00
 Harris functional with IExCor=  419 and IRadAn=       5 diagonalized for initial guess.
 HarFok:  IExCor=  419 AccDes= 0.00D+00 IRadAn=         5 IDoV= 1 UseB2=F ITyADJ=14
 ICtDFT=  3500011 ScaDFX=  1.000000  1.000000  1.000000  1.000000
 FoFCou: FMM=F IPFlag=           0 FMFlag=      100000 FMFlg1=           0
         NFxFlg=           0 DoJE=T BraDBF=F KetDBF=T FulRan=T
         wScrn=  0.000000 ICntrl=       500 IOpCl=  0 I1Cent=   200000004 NGrid=           0
         NMat0=    1 NMatS0=      1 NMatT0=    0 NMatD0=    1 NMtDS0=    0 NMtDT0=    0
 Petite list used in FoFCou.
 Initial guess orbital symmetries:
 Alpha Orbitals:
       Occupied  (A') (A') (A') (A') (A") (A') (A') (A") (A')
       Virtual   (A') (A') (A") (A') (A") (A') (A') (A") (A') (A")
                 (A') (A') (A') (A") (A') (A") (A') (A') (A") (A')
                 (A') (A') (A") (A") (A') (A") (A") (A') (A') (A")
                 (A') (A') (A") (A') (A') (A") (A") (A') (A') (A")
                 (A') (A") (A') (A') (A') (A") (A') (A') (A") (A')
                 (A') (A") (A') (A') (A') (A") (A') (A") (A") (A')
                 (A") (A') (A") (A') (A') (A") (A') (A") (A') (A")
                 (A") (A') (A") (A") (A') (A") (A') (A") (A') (A")
                 (A') (A') (A') (A') (A") (A") (A') (A') (A') (A")
                 (A') (A") (A') (A") (A') (A") (A') (A") (A') (A')
                 (A") (A') (A') (A") (A') (A") (A") (A') (A') (A")
                 (A') (A') (A") (A') (A') (A") (A') (A") (A") (A')
                 (A')
 Beta  Orbitals:
       Occupied  (A') (A') (A') (A') (A") (A') (A') (A")
       Virtual   (A') (A') (A') (A") (A') (A") (A') (A') (A") (A')
                 (A") (A') (A') (A') (A") (A') (A") (A') (A') (A")
                 (A') (A') (A') (A") (A") (A') (A") (A") (A') (A')
                 (A") (A') (A') (A") (A') (A') (A") (A") (A') (A')
                 (A") (A') (A") (A') (A') (A') (A") (A') (A') (A")
                 (A') (A') (A") (A') (A') (A') (A") (A') (A") (A")
                 (A') (A") (A') (A") (A') (A') (A") (A') (A") (A')
                 (A") (A") (A') (A") (A") (A') (A") (A') (A") (A')
                 (A") (A') (A') (A') (A') (A") (A") (A') (A') (A')
                 (A") (A') (A") (A') (A") (A') (A") (A') (A") (A')
                 (A') (A") (A') (A') (A") (A') (A") (A") (A') (A')
                 (A") (A') (A') (A") (A') (A') (A") (A') (A") (A")
                 (A') (A')
 The electronic state of the initial guess is 2-A'.
 Initial guess <Sx>= 0.0000 <Sy>= 0.0000 <Sz>= 0.5000 <S**2>= 0.7500 S= 0.5000
 Keep R1 and R2 ints in memory in symmetry-blocked form, NReq=54533109.
 Requested convergence on RMS density matrix=1.00D-08 within 128 cycles.
 Requested convergence on MAX density matrix=1.00D-06.
 Requested convergence on             energy=1.00D-06.
 No special actions if energy rises.
 Integral accuracy reduced to 1.0D-05 until final iterations.
 Initial convergence to 1.0D-05 achieved.  Increase integral accuracy.
 SCF Done:  E(UB2PLYPD3) =  -78.9832228034     A.U. after   13 cycles
            NFock= 13  Conv=0.53D-08     -V/T= 2.0056
 <Sx>= 0.0000 <Sy>= 0.0000 <Sz>= 0.5000 <S**2>= 0.7546 S= 0.5023
 <L.S>= 0.000000000000E+00
 Annihilation of the first spin contaminant:
 S**2 before annihilation     0.7546,   after     0.7500
 DoSCS=T DFT=T ScalE2(SS,OS)=  0.270000  0.270000
 ExpMin= 1.03D-01 ExpMax= 8.24D+03 ExpMxC= 2.81D+02 IAcc=3 IRadAn=         5 AccDes= 0.00D+00
 HarFok:  IExCor=  205 AccDes= 0.00D+00 IRadAn=         5 IDoV=-2 UseB2=F ITyADJ=14
 ICtDFT= 12500011 ScaDFX=  1.000000  1.000000  1.000000  1.000000
 Range of M.O.s used for correlation:     3   130
 NBasis=   130 NAE=     9 NBE=     8 NFC=     2 NFV=     0
 NROrb=    128 NOA=     7 NOB=     6 NVA=   121 NVB=   122

 **** Warning!!: The largest alpha MO coefficient is  0.11932629D+02


 **** Warning!!: The largest beta MO coefficient is  0.11930589D+02

 DoSCS=T DFT=T ScalE2(SS,OS)=  0.270000  0.270000
 Fully direct method using O(ONN) memory.
 JobTyp=2 Pass  1:  I=   3 to   9 NPSUse=  4 ParTrn=T ParDer=T DoDerP=T.
 JobTyp=3 Pass  1:  I=   3 to   8 NPSUse=  4 ParTrn=T ParDer=T DoDerP=T.
 Spin components of T(2) and E(2):
     alpha-alpha T2 =       0.2057136627D-01 E2=     -0.1329298238D-01
     alpha-beta  T2 =       0.1202905390D+00 E2=     -0.8518126987D-01
     beta-beta   T2 =       0.1482215529D-01 E2=     -0.9355350105D-02
 (S**2,0)=  0.75456D+00           (S**2,1)=  0.74819D+00
 Scaling Projection term by:   0.270000
 E(PUHF)=      -0.78984970799D+02        E(PMP2)=      -0.79091195247D+02
 E2(B2PLYPD3) =    -0.1078296024D+00 E(B2PLYPD3) =    -0.79091052405758D+02
          IDoAtm=1111111
          Differentiating once with respect to electric field.
                with respect to dipole field.
          Differentiating once with respect to nuclear coordinates.
 Keep R1 and R2 ints in memory in symmetry-blocked form, NReq=54534368.
          There are     1 degrees of freedom in the 1st order CPHF.  IDoFFX=0 NUNeed=     1.
 LinEq1:  Iter=  0 NonCon=     1 RMS=7.37D-04 Max=1.99D-02 NDo=     1
 AX will form     1 AO Fock derivatives at one time.
 LinEq1:  Iter=  1 NonCon=     1 RMS=2.87D-04 Max=4.49D-03 NDo=     1
 LinEq1:  Iter=  2 NonCon=     1 RMS=9.12D-05 Max=1.07D-03 NDo=     1
 LinEq1:  Iter=  3 NonCon=     1 RMS=2.00D-05 Max=2.41D-04 NDo=     1
 LinEq1:  Iter=  4 NonCon=     1 RMS=9.64D-06 Max=1.35D-04 NDo=     1
 LinEq1:  Iter=  5 NonCon=     1 RMS=3.27D-06 Max=3.25D-05 NDo=     1
 LinEq1:  Iter=  6 NonCon=     1 RMS=9.31D-07 Max=9.65D-06 NDo=     1
 LinEq1:  Iter=  7 NonCon=     1 RMS=1.60D-07 Max=1.56D-06 NDo=     1
 LinEq1:  Iter=  8 NonCon=     1 RMS=3.40D-08 Max=4.77D-07 NDo=     1
 LinEq1:  Iter=  9 NonCon=     1 RMS=8.19D-09 Max=1.13D-07 NDo=     1
 LinEq1:  Iter= 10 NonCon=     1 RMS=1.65D-09 Max=1.60D-08 NDo=     1
 LinEq1:  Iter= 11 NonCon=     1 RMS=5.28D-10 Max=6.66D-09 NDo=     1
 LinEq1:  Iter= 12 NonCon=     1 RMS=1.27D-10 Max=1.17D-09 NDo=     1
 LinEq1:  Iter= 13 NonCon=     0 RMS=2.19D-11 Max=3.35D-10 NDo=     1
 Linear equations converged to 1.000D-10 1.000D-09 after    13 iterations.
 End of Minotr F.D. properties file   721 does not exist.
 End of Minotr F.D. properties file   722 does not exist.
 End of Minotr F.D. properties file   788 does not exist.

 **********************************************************************

            Population analysis using the SCF density.

 **********************************************************************

 Orbital symmetries:
 Alpha Orbitals:
       Occupied  (A') (A') (A') (A') (A") (A') (A') (A") (A')
       Virtual   (A') (A') (A") (A') (A") (A') (A') (A") (A') (A")
                 (A') (A') (A") (A') (A') (A') (A") (A') (A') (A")
                 (A') (A') (A") (A") (A') (A") (A") (A') (A') (A")
                 (A') (A') (A") (A') (A') (A") (A") (A') (A') (A")
                 (A') (A") (A') (A') (A') (A") (A') (A') (A") (A')
                 (A') (A") (A') (A') (A') (A") (A') (A") (A") (A')
                 (A") (A') (A") (A') (A') (A') (A") (A") (A') (A")
                 (A") (A') (A") (A") (A') (A") (A') (A") (A') (A")
                 (A') (A') (A') (A') (A") (A") (A') (A') (A") (A')
                 (A') (A") (A') (A") (A') (A") (A') (A") (A') (A')
                 (A") (A') (A') (A") (A') (A") (A") (A') (A') (A")
                 (A') (A') (A") (A') (A") (A') (A") (A') (A") (A')
                 (A')
 Beta  Orbitals:
       Occupied  (A') (A') (A') (A') (A") (A') (A') (A")
       Virtual   (A') (A') (A') (A") (A') (A") (A') (A') (A") (A')
                 (A") (A') (A') (A") (A') (A') (A') (A") (A') (A')
                 (A") (A') (A') (A") (A") (A') (A") (A") (A') (A')
                 (A") (A') (A') (A") (A') (A') (A") (A") (A') (A')
                 (A") (A') (A") (A') (A') (A') (A") (A') (A') (A")
                 (A') (A') (A") (A') (A') (A') (A") (A') (A") (A")
                 (A") (A') (A') (A") (A') (A') (A") (A') (A") (A')
                 (A") (A") (A') (A") (A") (A') (A") (A') (A") (A')
                 (A") (A') (A') (A') (A') (A") (A") (A') (A') (A")
                 (A') (A') (A") (A') (A") (A') (A") (A') (A") (A')
                 (A') (A") (A') (A') (A") (A') (A") (A") (A') (A')
                 (A") (A') (A') (A") (A') (A") (A') (A') (A") (A")
                 (A') (A')
 The electronic state is 2-A'.
 Alpha  occ. eigenvalues --  -10.63160 -10.60903  -0.87083  -0.70295  -0.51275
 Alpha  occ. eigenvalues --   -0.49323  -0.43262  -0.40958  -0.30436
 Alpha virt. eigenvalues --    0.08208   0.12252   0.14254   0.15452   0.17045
 Alpha virt. eigenvalues --    0.24879   0.30698   0.32119   0.32927   0.33603
 Alpha virt. eigenvalues --    0.37048   0.46574   0.49861   0.51815   0.53395
 Alpha virt. eigenvalues --    0.55579   0.55833   0.56605   0.63332   0.63663
 Alpha virt. eigenvalues --    0.71431   0.82848   0.85611   0.93875   0.96976
 Alpha virt. eigenvalues --    1.01154   1.04855   1.07875   1.12554   1.14329
 Alpha virt. eigenvalues --    1.16328   1.18778   1.21935   1.24277   1.28351
 Alpha virt. eigenvalues --    1.29480   1.36349   1.39726   1.44453   1.45796
 Alpha virt. eigenvalues --    1.49566   1.56266   1.59864   1.65229   2.20046
 Alpha virt. eigenvalues --    2.29556   2.31518   2.37170   2.46591   2.46978
 Alpha virt. eigenvalues --    2.50290   2.60765   2.64008   2.71810   2.79832
 Alpha virt. eigenvalues --    2.80208   2.85719   2.89013   2.94486   2.97978
 Alpha virt. eigenvalues --    2.99549   3.02004   3.04053   3.12677   3.14600
 Alpha virt. eigenvalues --    3.18254   3.18984   3.20874   3.26329   3.27170
 Alpha virt. eigenvalues --    3.35146   3.41213   3.43245   3.47050   3.54195
 Alpha virt. eigenvalues --    3.55787   3.56090   3.59450   3.64272   3.79292
 Alpha virt. eigenvalues --    3.80541   3.85666   3.90097   3.90474   3.92865
 Alpha virt. eigenvalues --    3.97702   3.98892   4.06521   4.10450   4.12868
 Alpha virt. eigenvalues --    4.15787   4.19396   4.22761   4.23360   4.36693
 Alpha virt. eigenvalues --    4.38018   4.44267   4.47737   4.51106   4.64335
 Alpha virt. eigenvalues --    4.82670   4.88744   4.94263   4.95215   4.97096
 Alpha virt. eigenvalues --    5.02614   5.06244   5.12064   5.27908   5.36359
 Alpha virt. eigenvalues --    5.40487   5.42781   5.45194   5.47770   5.58204
 Alpha virt. eigenvalues --    5.61291   5.98422   5.98483   6.02794  11.57816
 Alpha virt. eigenvalues --   13.37373
  Beta  occ. eigenvalues --  -10.61300 -10.60959  -0.84877  -0.67221  -0.50533
  Beta  occ. eigenvalues --   -0.47055  -0.42273  -0.40242
  Beta virt. eigenvalues --    0.00127   0.08462   0.12599   0.14459   0.15623
  Beta virt. eigenvalues --    0.17589   0.25753   0.31007   0.32247   0.33457
  Beta virt. eigenvalues --    0.34225   0.43259   0.48827   0.50175   0.52988
  Beta virt. eigenvalues --    0.53779   0.56366   0.56730   0.58214   0.64670
  Beta virt. eigenvalues --    0.65171   0.71830   0.84551   0.85862   0.94155
  Beta virt. eigenvalues --    0.98981   1.01387   1.05671   1.08245   1.13545
  Beta virt. eigenvalues --    1.15164   1.18002   1.19217   1.22308   1.25188
  Beta virt. eigenvalues --    1.29293   1.31495   1.36630   1.40045   1.45804
  Beta virt. eigenvalues --    1.46307   1.50978   1.56741   1.60773   1.65900
  Beta virt. eigenvalues --    2.23880   2.29848   2.33279   2.39250   2.47328
  Beta virt. eigenvalues --    2.47666   2.52183   2.61573   2.66020   2.73102
  Beta virt. eigenvalues --    2.81088   2.81470   2.86673   2.89783   2.95511
  Beta virt. eigenvalues --    3.00592   3.00636   3.03675   3.04642   3.14159
  Beta virt. eigenvalues --    3.16190   3.19703   3.20122   3.21120   3.29764
  Beta virt. eigenvalues --    3.30228   3.36570   3.42245   3.43552   3.47741
  Beta virt. eigenvalues --    3.54940   3.56163   3.56653   3.59666   3.64863
  Beta virt. eigenvalues --    3.79777   3.81721   3.86052   3.90699   3.91276
  Beta virt. eigenvalues --    3.93126   3.98301   3.99202   4.06743   4.11054
  Beta virt. eigenvalues --    4.13608   4.16904   4.20204   4.23417   4.23729
  Beta virt. eigenvalues --    4.37063   4.38203   4.44896   4.47955   4.52649
  Beta virt. eigenvalues --    4.64772   4.83320   4.89992   4.94654   4.95443
  Beta virt. eigenvalues --    4.97889   5.03213   5.07300   5.12831   5.28337
  Beta virt. eigenvalues --    5.36955   5.40976   5.43013   5.45558   5.48343
  Beta virt. eigenvalues --    5.58681   5.62025   5.98827   5.99258   6.02986
  Beta virt. eigenvalues --   11.59368  13.37466
          Condensed to atoms (all electrons):
               1          2          3          4          5          6
     1  C    4.803356   0.406674   0.407127   0.406674   0.332978  -0.045709
     2  H    0.406674   0.595161  -0.032235  -0.031078  -0.035478   0.007521
     3  H    0.407127  -0.032235   0.603560  -0.032235  -0.041626  -0.002615
     4  H    0.406674  -0.031078  -0.032235   0.595161  -0.035478  -0.007271
     5  C    0.332978  -0.035478  -0.041626  -0.035478   5.192653   0.405365
     6  H   -0.045709   0.007521  -0.002615  -0.007271   0.405365   0.593179
     7  H   -0.045709  -0.007271  -0.002615   0.007521   0.405365  -0.048030
               7
     1  C   -0.045709
     2  H   -0.007271
     3  H   -0.002615
     4  H    0.007521
     5  C    0.405365
     6  H   -0.048030
     7  H    0.593179
          Atomic-Atomic Spin Densities.
               1          2          3          4          5          6
     1  C   -0.037092   0.003434   0.014752   0.003434  -0.036558   0.003364
     2  H    0.003434   0.010165  -0.006024   0.002035  -0.004649   0.000018
     3  H    0.014752  -0.006024   0.079058  -0.006024  -0.025645  -0.003054
     4  H    0.003434   0.002035  -0.006024   0.010165  -0.004649   0.001357
     5  C   -0.036558  -0.004649  -0.025645  -0.004649   1.086454   0.002272
     6  H    0.003364   0.000018  -0.003054   0.001357   0.002272  -0.029635
     7  H    0.003364   0.001357  -0.003054   0.000018   0.002272   0.007238
               7
     1  C    0.003364
     2  H    0.001357
     3  H   -0.003054
     4  H    0.000018
     5  C    0.002272
     6  H    0.007238
     7  H   -0.029635
 Mulliken charges and spin densities:
               1          2
     1  C   -0.265391  -0.045303
     2  H    0.096706   0.006337
     3  H    0.100638   0.050009
     4  H    0.096706   0.006337
     5  C   -0.223779   1.019499
     6  H    0.097560  -0.018439
     7  H    0.097560  -0.018439
 Sum of Mulliken charges =   0.00000   1.00000
 Mulliken charges and spin densities with hydrogens summed into heavy atoms:
               1          2
     1  C    0.028659   0.017380
     5  C   -0.028659   0.982620
 Electronic spatial extent (au):  <R**2>=             99.1760
 Charge=              0.0000 electrons
 Dipole moment (field-independent basis, Debye):
    X=              0.5700    Y=             -0.4279    Z=              0.0000  Tot=              0.7127
 Quadrupole moment (field-independent basis, Debye-Ang):
   XX=            -14.6746   YY=            -15.4016   ZZ=            -14.1277
   XY=              0.6885   XZ=              0.0000   YZ=              0.0000
 Traceless Quadrupole moment (field-independent basis, Debye-Ang):
   XX=              0.0601   YY=             -0.6670   ZZ=              0.6069
   XY=              0.6885   XZ=              0.0000   YZ=              0.0000
 Octapole moment (field-independent basis, Debye-Ang**2):
  XXX=              1.3083  YYY=             -1.7394  ZZZ=              0.0000  XYY=              1.2255
  XXY=             -1.0876  XXZ=              0.0000  XZZ=              0.1686  YZZ=             -0.2349
  YYZ=              0.0000  XYZ=              0.0000
 Hexadecapole moment (field-independent basis, Debye-Ang**3):
 XXXX=            -26.1169 YYYY=            -89.4947 ZZZZ=            -29.5964 XXXY=             -3.0365
 XXXZ=              0.0000 YYYX=             -1.6890 YYYZ=              0.0000 ZZZX=              0.0000
 ZZZY=              0.0000 XXYY=            -18.6219 XXZZ=             -8.9743 YYZZ=            -18.6178
 XXYZ=              0.0000 YYXZ=              0.0000 ZZXY=              0.5728
 N-N= 3.673428259558D+01 E-N=-2.561071385299D+02  KE= 7.854717297082D+01
 Symmetry A'   KE= 7.462420861061D+01
 Symmetry A"   KE= 3.922964360211D+00
 Symmetry A'   SP= 1.000000000000D+00
 Symmetry A"   SP= 3.397888443899D-15
                          Isotropic Fermi Contact Couplings
        Atom                 a.u.       MegaHertz       Gauss      10(-4) cm-1
     1  C(13)             -0.01334     -14.99198      -5.34951      -5.00079
     2  H(1)               0.00453      20.24886       7.22530       6.75429
     3  H(1)               0.02788     124.64130      44.47512      41.57586
     4  H(1)               0.00453      20.24886       7.22530       6.75429
     5  C(13)              0.28514     320.54944     114.38001     106.92379
     6  H(1)              -0.00203      -9.08843      -3.24298      -3.03157
     7  H(1)              -0.00203      -9.08843      -3.24298      -3.03157
 --------------------------------------------------------
       Center         ----  Spin Dipole Couplings  ----
                      3XX-RR        3YY-RR        3ZZ-RR
 --------------------------------------------------------
     1   Atom       -0.002804      0.029632     -0.026828
     2   Atom       -0.008889      0.013157     -0.004268
     3   Atom        0.003460      0.007406     -0.010866
     4   Atom       -0.008889      0.013157     -0.004268
     5   Atom        0.843122     -0.336128     -0.506994
     6   Atom        0.007043     -0.035875      0.028832
     7   Atom        0.007043     -0.035875      0.028832
 --------------------------------------------------------
                        XY            XZ            YZ
 --------------------------------------------------------
     1   Atom       -0.029735      0.000000      0.000000
     2   Atom        0.003468     -0.001760     -0.012091
     3   Atom       -0.007308      0.000000      0.000000
     4   Atom        0.003468      0.001760      0.012091
     5   Atom       -0.487658      0.000000      0.000000
     6   Atom        0.000108     -0.037763     -0.042771
     7   Atom        0.000108      0.037763      0.042771
 --------------------------------------------------------


 ---------------------------------------------------------------------------------
              Anisotropic Spin Dipole Couplings in Principal Axis System
 ---------------------------------------------------------------------------------

       Atom             a.u.   MegaHertz   Gauss  10(-4) cm-1        Axes

              Baa    -0.0268    -3.600    -1.285    -1.201  0.0000  0.0000  1.0000
     1 C(13)  Bbb    -0.0205    -2.745    -0.979    -0.916  0.8599  0.5105  0.0000
              Bcc     0.0473     6.345     2.264     2.116 -0.5105  0.8599  0.0000
 
              Baa    -0.0105    -5.580    -1.991    -1.861 -0.0133  0.4572  0.8893
     2 H(1)   Bbb    -0.0094    -5.023    -1.792    -1.676  0.9909 -0.1131  0.0730
              Bcc     0.0199    10.603     3.784     3.537  0.1340  0.8821 -0.4515
 
              Baa    -0.0109    -5.798    -2.069    -1.934  0.0000  0.0000  1.0000
     3 H(1)   Bbb    -0.0021    -1.140    -0.407    -0.380  0.7939  0.6080  0.0000
              Bcc     0.0130     6.937     2.475     2.314 -0.6080  0.7939  0.0000
 
              Baa    -0.0105    -5.580    -1.991    -1.861  0.0133 -0.4572  0.8893
     4 H(1)   Bbb    -0.0094    -5.023    -1.792    -1.676  0.9909 -0.1131 -0.0730
              Bcc     0.0199    10.603     3.784     3.537  0.1340  0.8821  0.4515
 
              Baa    -0.5117   -68.660   -24.500   -22.903  0.3387  0.9409  0.0000
     5 C(13)  Bbb    -0.5070   -68.034   -24.276   -22.694  0.0000  0.0000  1.0000
              Bcc     1.0187   136.694    48.776    45.596  0.9409 -0.3387  0.0000
 
              Baa    -0.0619   -33.034   -11.787   -11.019  0.2730  0.8214  0.5008
     6 H(1)   Bbb    -0.0073    -3.901    -1.392    -1.301  0.8275 -0.4659  0.3132
              Bcc     0.0692    36.935    13.179    12.320 -0.4906 -0.3289  0.8069
 
              Baa    -0.0619   -33.034   -11.787   -11.019  0.2730  0.8214 -0.5008
     7 H(1)   Bbb    -0.0073    -3.901    -1.392    -1.301  0.8275 -0.4659 -0.3132
              Bcc     0.0692    36.935    13.179    12.320  0.4906  0.3289  0.8069
 

 ---------------------------------------------------------------------------------

 Calling FoFJK, ICntrl=  10002127 FMM=F ISym2X=1 I1Cent= 0 IOpClX= 1 NMat=1 NMatS=1 NMatT=0.
 ***** Axes restored to original set *****
 -------------------------------------------------------------------
 Center     Atomic                   Forces (Hartrees/Bohr)
 Number     Number              X              Y              Z
 -------------------------------------------------------------------
      1        6          -0.023441336    0.006798153    0.000000000
      2        1           0.003280235   -0.001618326   -0.002633828
      3        1          -0.000734985    0.001436359    0.000000000
      4        1           0.003280235   -0.001618326    0.002633828
      5        6           0.054808344   -0.012997039    0.000000000
      6        1          -0.018596246    0.003999589    0.001961869
      7        1          -0.018596246    0.003999589   -0.001961869
 -------------------------------------------------------------------
 Cartesian Forces:  Max     0.054808344 RMS     0.014708527

 GradGradGradGradGradGradGradGradGradGradGradGradGradGradGradGradGradGrad
 Berny optimization.
 FormGI is forming the generalized inverse of G from B-inverse, IUseBI=4.
 Internal  Forces:  Max     0.018752924 RMS     0.008684618
 Search for a local minimum.
 Step number   1 out of a maximum of   31
 All quantities printed in internal units (Hartrees-Bohrs-Radians)
 Mixed Optimization -- RFO/linear search
 Second derivative matrix not updated -- first step.
 ITU=  0
     Eigenvalues ---    0.00508   0.04128   0.07166   0.07222   0.16000
     Eigenvalues ---    0.16000   0.16000   0.16000   0.16000   0.30417
     Eigenvalues ---    0.33409   0.33409   0.34284   0.34358   0.34358
 RFO step:  Lambda=-1.73041741D-02 EMin= 5.08306435D-03
 Linear search not attempted -- first point.
 Iteration  1 RMS(Cart)=  0.08075140 RMS(Int)=  0.01719514
 Iteration  2 RMS(Cart)=  0.01148602 RMS(Int)=  0.01333511
 Iteration  3 RMS(Cart)=  0.00010648 RMS(Int)=  0.01333477
 Iteration  4 RMS(Cart)=  0.00000322 RMS(Int)=  0.01333476
 Iteration  5 RMS(Cart)=  0.00000011 RMS(Int)=  0.01333476
 ClnCor:  largest displacement from symmetrization is 6.26D-10 for atom     4.
 Variable       Old X    -DE/DX   Delta X   Delta X   Delta X     New X
                                 (Linear)    (Quad)   (Total)
    R1        2.06731  -0.00290   0.00000  -0.00802  -0.00802   2.05928
    R2        2.06854  -0.00106   0.00000  -0.00295  -0.00295   2.06559
    R3        2.06731  -0.00290   0.00000  -0.00802  -0.00802   2.05928
    R4        2.87140  -0.00696   0.00000  -0.02165  -0.02165   2.84974
    R5        2.08338  -0.00832   0.00000  -0.02367  -0.02367   2.05972
    R6        2.08338  -0.00832   0.00000  -0.02367  -0.02367   2.05972
    A1        1.89536  -0.00154   0.00000  -0.01417  -0.01399   1.88137
    A2        1.88775  -0.00223   0.00000  -0.00151  -0.00235   1.88539
    A3        1.92655   0.00464   0.00000   0.02900   0.02862   1.95516
    A4        1.89536  -0.00154   0.00000  -0.01417  -0.01399   1.88137
    A5        1.93126  -0.00411   0.00000  -0.02887  -0.02868   1.90257
    A6        1.92655   0.00464   0.00000   0.02900   0.02862   1.95516
    A7        1.91664   0.01875   0.00000   0.16742   0.13707   2.05371
    A8        1.91664   0.01875   0.00000   0.16742   0.13707   2.05371
    A9        1.86854  -0.00196   0.00000   0.11542   0.07595   1.94449
    D1        3.12369   0.00837   0.00000   0.15206   0.15911  -3.00038
    D2        1.07345  -0.01151   0.00000  -0.18716  -0.19501   0.87844
    D3        1.02512   0.00994   0.00000   0.16961   0.17706   1.20218
    D4       -1.02512  -0.00994   0.00000  -0.16961  -0.17706  -1.20218
    D5       -1.07345   0.01151   0.00000   0.18716   0.19501  -0.87844
    D6       -3.12369  -0.00837   0.00000  -0.15206  -0.15911   3.00038
         Item               Value     Threshold  Converged?
 Maximum Force            0.018753     0.000450     NO 
 RMS     Force            0.008685     0.000300     NO 
 Maximum Displacement     0.217619     0.001800     NO 
 RMS     Displacement     0.074667     0.001200     NO 
 Predicted change in Energy=-1.222751D-02
 GradGradGradGradGradGradGradGradGradGradGradGradGradGradGradGradGradGrad

                          Input orientation:                          
 ---------------------------------------------------------------------
 Center     Atomic      Atomic             Coordinates (Angstroms)
 Number     Number       Type             X           Y           Z
 ---------------------------------------------------------------------
      1          6           0        0.018931   -0.713744    0.000000
      2          1           0       -0.457440   -1.141642    0.881746
      3          1           0        1.065722   -1.028401    0.000000
      4          1           0       -0.457440   -1.141642   -0.881746
      5          6           0       -0.041039    0.793082    0.000000
      6          1           0        0.286384    1.312652   -0.900469
      7          1           0        0.286384    1.312652    0.900469
 ---------------------------------------------------------------------
                    Distance matrix (angstroms):
                    1          2          3          4          5
     1  C    0.000000
     2  H    1.089726   0.000000
     3  H    1.093061   1.763611   0.000000
     4  H    1.089726   1.763492   1.763611   0.000000
     5  C    1.508019   2.166569   2.131366   2.166569   0.000000
     6  H    2.233529   3.122999   2.626545   2.564601   1.089955
     7  H    2.233529   2.564601   2.626545   3.122999   1.089955
                    6          7
     6  H    0.000000
     7  H    1.800937   0.000000
 Stoichiometry    C2H5(2)
 Framework group  CS[SG(C2H),X(H4)]
 Deg. of freedom     9
 Full point group                 CS      NOp   2
 Largest Abelian subgroup         CS      NOp   2
 Largest concise Abelian subgroup CS      NOp   2
                         Standard orientation:                         
 ---------------------------------------------------------------------
 Center     Atomic      Atomic             Coordinates (Angstroms)
 Number     Number       Type             X           Y           Z
 ---------------------------------------------------------------------
      1          6           0       -0.043711   -0.700186    0.000000
      2          1           0       -0.536721   -1.108801    0.881746
      3          1           0        0.989740   -1.056222    0.000000
      4          1           0       -0.536721   -1.108801   -0.881746
      5          6           0       -0.043711    0.807833    0.000000
      6          1           0        0.304115    1.313971   -0.900469
      7          1           0        0.304115    1.313971    0.900469
 ---------------------------------------------------------------------
 Rotational constants (GHZ):         102.1137656          22.3881876          21.0335448
 Standard basis: CC-pVTZ (5D, 7F)
 There are    89 symmetry adapted cartesian basis functions of A'  symmetry.
 There are    56 symmetry adapted cartesian basis functions of A"  symmetry.
 There are    78 symmetry adapted basis functions of A'  symmetry.
 There are    52 symmetry adapted basis functions of A"  symmetry.
   130 basis functions,   189 primitive gaussians,   145 cartesian basis functions
     9 alpha electrons        8 beta electrons
       nuclear repulsion energy        36.8030450816 Hartrees.
 NAtoms=    7 NActive=    7 NUniq=    5 SFac= 1.96D+00 NAtFMM=   60 NAOKFM=F Big=F
 Integral buffers will be    131072 words long.
 Regular integral format.
 Two-electron integral symmetry is turned on.
 Nuclear repulsion after empirical dispersion term =       36.8010513853 Hartrees.
 One-electron integrals computed using PRISM.
 NBasis=   130 RedAO= T EigKep=  1.32D-03  NBF=    78    52
 NBsUse=   130 1.00D-06 EigRej= -1.00D+00 NBFU=    78    52
 Initial guess from the checkpoint file:  "D:\study\G16W\Scratch\Gau-9488.chk"
 B after Tr=     0.000000    0.000000    0.000000
         Rot=    0.999746    0.000000    0.000000   -0.022520 Ang=  -2.58 deg.
 Initial guess orbital symmetries:
 Alpha Orbitals:
       Occupied  (A') (A') (A') (A') (A") (A') (A') (A") (A')
       Virtual   (A') (A') (A") (A') (A") (A') (A') (A") (A') (A")
                 (A') (A') (A") (A') (A') (A') (A") (A') (A') (A")
                 (A') (A') (A") (A") (A') (A") (A") (A') (A') (A")
                 (A') (A') (A") (A') (A') (A") (A") (A') (A') (A")
                 (A') (A") (A') (A') (A') (A") (A') (A') (A") (A')
                 (A') (A") (A') (A') (A') (A") (A') (A") (A") (A')
                 (A") (A') (A") (A') (A') (A') (A") (A") (A') (A")
                 (A") (A') (A") (A") (A') (A") (A') (A") (A') (A")
                 (A') (A') (A') (A') (A") (A") (A') (A') (A") (A')
                 (A') (A") (A') (A") (A') (A") (A') (A") (A') (A')
                 (A") (A') (A') (A") (A') (A") (A") (A') (A') (A")
                 (A') (A') (A") (A') (A") (A') (A") (A') (A") (A')
                 (A')
 Beta  Orbitals:
       Occupied  (A') (A') (A') (A') (A") (A') (A') (A")
       Virtual   (A') (A') (A') (A") (A') (A") (A') (A') (A") (A')
                 (A") (A') (A') (A") (A') (A') (A') (A") (A') (A')
                 (A") (A') (A') (A") (A") (A') (A") (A") (A') (A')
                 (A") (A') (A') (A") (A') (A') (A") (A") (A') (A')
                 (A") (A') (A") (A') (A') (A') (A") (A') (A') (A")
                 (A') (A') (A") (A') (A') (A') (A") (A') (A") (A")
                 (A") (A') (A') (A") (A') (A') (A") (A') (A") (A')
                 (A") (A") (A') (A") (A") (A') (A") (A') (A") (A')
                 (A") (A') (A') (A') (A') (A") (A") (A') (A') (A")
                 (A') (A') (A") (A') (A") (A') (A") (A') (A") (A')
                 (A') (A") (A') (A') (A") (A') (A") (A") (A') (A')
                 (A") (A') (A') (A") (A') (A") (A') (A') (A") (A")
                 (A') (A')
 Initial guess <Sx>= 0.0000 <Sy>= 0.0000 <Sz>= 0.5000 <S**2>= 0.7545 S= 0.5022
 ExpMin= 1.03D-01 ExpMax= 8.24D+03 ExpMxC= 2.81D+02 IAcc=2 IRadAn=         4 AccDes= 0.00D+00
 Harris functional with IExCor=  419 and IRadAn=       4 diagonalized for initial guess.
 HarFok:  IExCor=  419 AccDes= 0.00D+00 IRadAn=         4 IDoV= 1 UseB2=F ITyADJ=14
 ICtDFT=  3500011 ScaDFX=  1.000000  1.000000  1.000000  1.000000
 FoFCou: FMM=F IPFlag=           0 FMFlag=      100000 FMFlg1=           0
         NFxFlg=           0 DoJE=T BraDBF=F KetDBF=T FulRan=T
         wScrn=  0.000000 ICntrl=       500 IOpCl=  0 I1Cent=   200000004 NGrid=           0
         NMat0=    1 NMatS0=      1 NMatT0=    0 NMatD0=    1 NMtDS0=    0 NMtDT0=    0
 Petite list used in FoFCou.
 Keep R1 and R2 ints in memory in symmetry-blocked form, NReq=54533109.
 Requested convergence on RMS density matrix=1.00D-08 within 128 cycles.
 Requested convergence on MAX density matrix=1.00D-06.
 Requested convergence on             energy=1.00D-06.
 No special actions if energy rises.
 Integral accuracy reduced to 1.0D-05 until final iterations.
 Initial convergence to 1.0D-05 achieved.  Increase integral accuracy.
 SCF Done:  E(UB2PLYPD3) =  -78.9936454297     A.U. after   12 cycles
            NFock= 12  Conv=0.49D-08     -V/T= 2.0052
 <Sx>= 0.0000 <Sy>= 0.0000 <Sz>= 0.5000 <S**2>= 0.7554 S= 0.5027
 <L.S>= 0.000000000000E+00
 Annihilation of the first spin contaminant:
 S**2 before annihilation     0.7554,   after     0.7500
 DoSCS=T DFT=T ScalE2(SS,OS)=  0.270000  0.270000
 ExpMin= 1.03D-01 ExpMax= 8.24D+03 ExpMxC= 2.81D+02 IAcc=3 IRadAn=         5 AccDes= 0.00D+00
 HarFok:  IExCor=  205 AccDes= 0.00D+00 IRadAn=         5 IDoV=-2 UseB2=F ITyADJ=14
 ICtDFT= 12500011 ScaDFX=  1.000000  1.000000  1.000000  1.000000
 Range of M.O.s used for correlation:     3   130
 NBasis=   130 NAE=     9 NBE=     8 NFC=     2 NFV=     0
 NROrb=    128 NOA=     7 NOB=     6 NVA=   121 NVB=   122

 **** Warning!!: The largest alpha MO coefficient is  0.11916782D+02


 **** Warning!!: The largest beta MO coefficient is  0.11912753D+02

 DoSCS=T DFT=T ScalE2(SS,OS)=  0.270000  0.270000
 Fully direct method using O(ONN) memory.
 JobTyp=2 Pass  1:  I=   3 to   9 NPSUse=  4 ParTrn=T ParDer=T DoDerP=T.
 JobTyp=3 Pass  1:  I=   3 to   8 NPSUse=  4 ParTrn=T ParDer=T DoDerP=T.
 Spin components of T(2) and E(2):
     alpha-alpha T2 =       0.2059662925D-01 E2=     -0.1337327052D-01
     alpha-beta  T2 =       0.1186597069D+00 E2=     -0.8491833381D-01
     beta-beta   T2 =       0.1446686332D-01 E2=     -0.9221223596D-02
 (S**2,0)=  0.75545D+00           (S**2,1)=  0.74783D+00
 Scaling Projection term by:   0.270000
 E(PUHF)=      -0.78995733505D+02        E(PMP2)=      -0.79101328612D+02
 E2(B2PLYPD3) =    -0.1075128279D+00 E(B2PLYPD3) =    -0.79101158257615D+02
          IDoAtm=1111111
          Differentiating once with respect to electric field.
                with respect to dipole field.
          Differentiating once with respect to nuclear coordinates.
 Keep R1 and R2 ints in memory in symmetry-blocked form, NReq=54534368.
          There are     1 degrees of freedom in the 1st order CPHF.  IDoFFX=0 NUNeed=     1.
 LinEq1:  Iter=  0 NonCon=     1 RMS=7.13D-04 Max=1.95D-02 NDo=     1
 AX will form     1 AO Fock derivatives at one time.
 LinEq1:  Iter=  1 NonCon=     1 RMS=2.81D-04 Max=4.72D-03 NDo=     1
 LinEq1:  Iter=  2 NonCon=     1 RMS=9.10D-05 Max=1.01D-03 NDo=     1
 LinEq1:  Iter=  3 NonCon=     1 RMS=1.94D-05 Max=2.49D-04 NDo=     1
 LinEq1:  Iter=  4 NonCon=     1 RMS=8.84D-06 Max=1.40D-04 NDo=     1
 LinEq1:  Iter=  5 NonCon=     1 RMS=2.89D-06 Max=3.55D-05 NDo=     1
 LinEq1:  Iter=  6 NonCon=     1 RMS=8.23D-07 Max=8.24D-06 NDo=     1
 LinEq1:  Iter=  7 NonCon=     1 RMS=1.51D-07 Max=1.48D-06 NDo=     1
 LinEq1:  Iter=  8 NonCon=     1 RMS=3.15D-08 Max=4.20D-07 NDo=     1
 LinEq1:  Iter=  9 NonCon=     1 RMS=7.47D-09 Max=1.10D-07 NDo=     1
 LinEq1:  Iter= 10 NonCon=     1 RMS=1.34D-09 Max=1.34D-08 NDo=     1
 LinEq1:  Iter= 11 NonCon=     1 RMS=2.35D-10 Max=2.83D-09 NDo=     1
 LinEq1:  Iter= 12 NonCon=     0 RMS=4.09D-11 Max=5.28D-10 NDo=     1
 Linear equations converged to 1.000D-10 1.000D-09 after    12 iterations.
 End of Minotr F.D. properties file   721 does not exist.
 End of Minotr F.D. properties file   722 does not exist.
 End of Minotr F.D. properties file   788 does not exist.
 Calling FoFJK, ICntrl=  10002127 FMM=F ISym2X=1 I1Cent= 0 IOpClX= 1 NMat=1 NMatS=1 NMatT=0.
 ***** Axes restored to original set *****
 -------------------------------------------------------------------
 Center     Atomic                   Forces (Hartrees/Bohr)
 Number     Number              X              Y              Z
 -------------------------------------------------------------------
      1        6          -0.006031003    0.011163677    0.000000000
      2        1           0.001031213    0.000649607   -0.000014545
      3        1           0.001027240   -0.002694687    0.000000000
      4        1           0.001031213    0.000649607    0.000014545
      5        6           0.018454506   -0.003720541    0.000000000
      6        1          -0.007756585   -0.003023831    0.000614370
      7        1          -0.007756585   -0.003023831   -0.000614370
 -------------------------------------------------------------------
 Cartesian Forces:  Max     0.018454506 RMS     0.005631843

 GradGradGradGradGradGradGradGradGradGradGradGradGradGradGradGradGradGrad
 Berny optimization.
 Using GEDIIS/GDIIS optimizer.
 FormGI is forming the generalized inverse of G from B-inverse, IUseBI=4.
 Internal  Forces:  Max     0.009877438 RMS     0.003450570
 Search for a local minimum.
 Step number   2 out of a maximum of   31
 All quantities printed in internal units (Hartrees-Bohrs-Radians)
 Mixed Optimization -- RFO/linear search
 Update second derivatives using D2CorX and points    1    2
 DE= -1.01D-02 DEPred=-1.22D-02 R= 8.26D-01
 TightC=F SS=  1.41D+00  RLast= 4.87D-01 DXNew= 5.0454D-01 1.4615D+00
 Trust test= 8.26D-01 RLast= 4.87D-01 DXMaxT set to 5.05D-01
 ITU=  1  0
 Use linear search instead of GDIIS.
     Eigenvalues ---    0.00508   0.03142   0.06911   0.07274   0.15896
     Eigenvalues ---    0.16000   0.16000   0.16000   0.18559   0.29964
     Eigenvalues ---    0.32612   0.33409   0.34307   0.34358   0.34395
 RFO step:  Lambda=-3.43164991D-03 EMin= 5.08306435D-03
 Quartic linear search produced a step of  0.71658.
 Iteration  1 RMS(Cart)=  0.07296797 RMS(Int)=  0.01988491
 Iteration  2 RMS(Cart)=  0.00983731 RMS(Int)=  0.01746355
 Iteration  3 RMS(Cart)=  0.00012084 RMS(Int)=  0.01746298
 Iteration  4 RMS(Cart)=  0.00000302 RMS(Int)=  0.01746298
 Iteration  5 RMS(Cart)=  0.00000009 RMS(Int)=  0.01746298
 ClnCor:  largest displacement from symmetrization is 4.66D-10 for atom     4.
 Variable       Old X    -DE/DX   Delta X   Delta X   Delta X     New X
                                 (Linear)    (Quad)   (Total)
    R1        2.05928  -0.00072  -0.00575   0.00163  -0.00412   2.05516
    R2        2.06559   0.00176  -0.00212   0.01083   0.00872   2.07430
    R3        2.05928  -0.00072  -0.00575   0.00163  -0.00412   2.05516
    R4        2.84974  -0.00988  -0.01552  -0.04212  -0.05763   2.79211
    R5        2.05972  -0.00428  -0.01696  -0.00673  -0.02369   2.03603
    R6        2.05972  -0.00428  -0.01696  -0.00673  -0.02369   2.03603
    A1        1.88137  -0.00131  -0.01002  -0.00486  -0.01473   1.86665
    A2        1.88539   0.00095  -0.00169   0.01196   0.00964   1.89503
    A3        1.95516  -0.00088   0.02051  -0.02782  -0.00757   1.94759
    A4        1.88137  -0.00131  -0.01002  -0.00486  -0.01473   1.86665
    A5        1.90257   0.00334  -0.02055   0.05439   0.03400   1.93657
    A6        1.95516  -0.00088   0.02051  -0.02782  -0.00757   1.94759
    A7        2.05371   0.00072   0.09822  -0.01758   0.03577   2.08948
    A8        2.05371   0.00072   0.09822  -0.01758   0.03577   2.08948
    A9        1.94449   0.00313   0.05442   0.10350   0.11044   2.05493
    D1       -3.00038   0.00376   0.11402   0.07986   0.19806  -2.80232
    D2        0.87844  -0.00372  -0.13974  -0.05514  -0.19968   0.67876
    D3        1.20218   0.00374   0.12688   0.06750   0.19887   1.40105
    D4       -1.20218  -0.00374  -0.12688  -0.06750  -0.19887  -1.40105
    D5       -0.87844   0.00372   0.13974   0.05514   0.19968  -0.67876
    D6        3.00038  -0.00376  -0.11402  -0.07986  -0.19806   2.80232
         Item               Value     Threshold  Converged?
 Maximum Force            0.009877     0.000450     NO 
 RMS     Force            0.003451     0.000300     NO 
 Maximum Displacement     0.186362     0.001800     NO 
 RMS     Displacement     0.071555     0.001200     NO 
 Predicted change in Energy=-1.837228D-03
 GradGradGradGradGradGradGradGradGradGradGradGradGradGradGradGradGradGrad

                          Input orientation:                          
 ---------------------------------------------------------------------
 Center     Atomic      Atomic             Coordinates (Angstroms)
 Number     Number       Type             X           Y           Z
 ---------------------------------------------------------------------
      1          6           0        0.043591   -0.701624    0.000000
      2          1           0       -0.452977   -1.097090    0.883051
      3          1           0        1.064885   -1.103923    0.000000
      4          1           0       -0.452977   -1.097090   -0.883051
      5          6           0        0.057580    0.775830    0.000000
      6          1           0        0.220701    1.308427   -0.922261
      7          1           0        0.220701    1.308427    0.922261
 ---------------------------------------------------------------------
                    Distance matrix (angstroms):
                    1          2          3          4          5
     1  C    0.000000
     2  H    1.087544   0.000000
     3  H    1.097672   1.756055   0.000000
     4  H    1.087544   1.766102   1.756055   0.000000
     5  C    1.477521   2.132670   2.132635   2.132670   0.000000
     6  H    2.218611   3.082127   2.717102   2.498378   1.077419
     7  H    2.218611   2.498378   2.717102   3.082127   1.077419
                    6          7
     6  H    0.000000
     7  H    1.844521   0.000000
 Stoichiometry    C2H5(2)
 Framework group  CS[SG(C2H),X(H4)]
 Deg. of freedom     9
 Full point group                 CS      NOp   2
 Largest Abelian subgroup         CS      NOp   2
 Largest concise Abelian subgroup CS      NOp   2
                         Standard orientation:                         
 ---------------------------------------------------------------------
 Center     Atomic      Atomic             Coordinates (Angstroms)
 Number     Number       Type             X           Y           Z
 ---------------------------------------------------------------------
      1          6           0       -0.020917   -0.687970    0.000000
      2          1           0       -0.513719   -1.088120    0.883051
      3          1           0        1.004139   -1.080581    0.000000
      4          1           0       -0.513719   -1.088120   -0.883051
      5          6           0       -0.020917    0.789551    0.000000
      6          1           0        0.137153    1.323668   -0.922261
      7          1           0        0.137153    1.323668    0.922261
 ---------------------------------------------------------------------
 Rotational constants (GHZ):         103.7116913          23.1431610          21.4720852
 Standard basis: CC-pVTZ (5D, 7F)
 There are    89 symmetry adapted cartesian basis functions of A'  symmetry.
 There are    56 symmetry adapted cartesian basis functions of A"  symmetry.
 There are    78 symmetry adapted basis functions of A'  symmetry.
 There are    52 symmetry adapted basis functions of A"  symmetry.
   130 basis functions,   189 primitive gaussians,   145 cartesian basis functions
     9 alpha electrons        8 beta electrons
       nuclear repulsion energy        37.1930920325 Hartrees.
 NAtoms=    7 NActive=    7 NUniq=    5 SFac= 1.96D+00 NAtFMM=   60 NAOKFM=F Big=F
 Integral buffers will be    131072 words long.
 Regular integral format.
 Two-electron integral symmetry is turned on.
 Nuclear repulsion after empirical dispersion term =       37.1910961871 Hartrees.
 One-electron integrals computed using PRISM.
 NBasis=   130 RedAO= T EigKep=  1.17D-03  NBF=    78    52
 NBsUse=   130 1.00D-06 EigRej= -1.00D+00 NBFU=    78    52
 Initial guess from the checkpoint file:  "D:\study\G16W\Scratch\Gau-9488.chk"
 B after Tr=     0.000000    0.000000    0.000000
         Rot=    0.999893    0.000000    0.000000   -0.014662 Ang=  -1.68 deg.
 Initial guess orbital symmetries:
 Alpha Orbitals:
       Occupied  (A') (A') (A') (A') (A") (A') (A') (A") (A')
       Virtual   (A') (A') (A") (A') (A") (A') (A') (A") (A') (A")
                 (A') (A') (A") (A') (A') (A') (A') (A") (A') (A")
                 (A') (A") (A') (A") (A') (A") (A") (A') (A') (A')
                 (A") (A') (A") (A') (A') (A") (A") (A') (A') (A")
                 (A') (A') (A") (A') (A') (A") (A') (A') (A') (A")
                 (A') (A") (A') (A') (A") (A') (A') (A") (A") (A')
                 (A") (A') (A") (A') (A') (A") (A") (A') (A") (A')
                 (A") (A") (A') (A') (A") (A') (A") (A') (A") (A")
                 (A') (A') (A") (A') (A') (A") (A') (A') (A") (A')
                 (A') (A") (A") (A') (A') (A") (A') (A") (A') (A')
                 (A") (A') (A') (A") (A') (A") (A') (A") (A') (A')
                 (A") (A') (A") (A') (A") (A') (A") (A') (A") (A')
                 (A')
 Beta  Orbitals:
       Occupied  (A') (A') (A') (A') (A") (A') (A') (A")
       Virtual   (A') (A') (A') (A") (A') (A") (A') (A') (A") (A')
                 (A") (A') (A') (A") (A') (A') (A') (A') (A") (A')
                 (A") (A') (A") (A') (A") (A") (A') (A") (A') (A')
                 (A') (A") (A') (A") (A') (A') (A") (A") (A') (A')
                 (A") (A') (A") (A') (A') (A') (A") (A') (A') (A')
                 (A") (A') (A") (A') (A') (A") (A') (A') (A") (A")
                 (A') (A") (A') (A") (A') (A") (A') (A") (A') (A")
                 (A') (A") (A") (A') (A') (A") (A') (A") (A') (A")
                 (A") (A') (A') (A") (A') (A') (A") (A') (A') (A")
                 (A') (A') (A") (A") (A') (A') (A") (A') (A") (A')
                 (A') (A") (A') (A') (A") (A') (A") (A') (A') (A")
                 (A') (A") (A') (A") (A') (A") (A') (A") (A') (A")
                 (A') (A')
 Initial guess <Sx>= 0.0000 <Sy>= 0.0000 <Sz>= 0.5000 <S**2>= 0.7554 S= 0.5027
 ExpMin= 1.03D-01 ExpMax= 8.24D+03 ExpMxC= 2.81D+02 IAcc=2 IRadAn=         4 AccDes= 0.00D+00
 Harris functional with IExCor=  419 and IRadAn=       4 diagonalized for initial guess.
 HarFok:  IExCor=  419 AccDes= 0.00D+00 IRadAn=         4 IDoV= 1 UseB2=F ITyADJ=14
 ICtDFT=  3500011 ScaDFX=  1.000000  1.000000  1.000000  1.000000
 FoFCou: FMM=F IPFlag=           0 FMFlag=      100000 FMFlg1=           0
         NFxFlg=           0 DoJE=T BraDBF=F KetDBF=T FulRan=T
         wScrn=  0.000000 ICntrl=       500 IOpCl=  0 I1Cent=   200000004 NGrid=           0
         NMat0=    1 NMatS0=      1 NMatT0=    0 NMatD0=    1 NMtDS0=    0 NMtDT0=    0
 Petite list used in FoFCou.
 Keep R1 and R2 ints in memory in symmetry-blocked form, NReq=54533109.
 Requested convergence on RMS density matrix=1.00D-08 within 128 cycles.
 Requested convergence on MAX density matrix=1.00D-06.
 Requested convergence on             energy=1.00D-06.
 No special actions if energy rises.
 Integral accuracy reduced to 1.0D-05 until final iterations.
 Initial convergence to 1.0D-05 achieved.  Increase integral accuracy.
 SCF Done:  E(UB2PLYPD3) =  -78.9966123043     A.U. after   12 cycles
            NFock= 12  Conv=0.62D-08     -V/T= 2.0043
 <Sx>= 0.0000 <Sy>= 0.0000 <Sz>= 0.5000 <S**2>= 0.7563 S= 0.5031
 <L.S>= 0.000000000000E+00
 Annihilation of the first spin contaminant:
 S**2 before annihilation     0.7563,   after     0.7500
 DoSCS=T DFT=T ScalE2(SS,OS)=  0.270000  0.270000
 ExpMin= 1.03D-01 ExpMax= 8.24D+03 ExpMxC= 2.81D+02 IAcc=3 IRadAn=         5 AccDes= 0.00D+00
 HarFok:  IExCor=  205 AccDes= 0.00D+00 IRadAn=         5 IDoV=-2 UseB2=F ITyADJ=14
 ICtDFT= 12500011 ScaDFX=  1.000000  1.000000  1.000000  1.000000
 Range of M.O.s used for correlation:     3   130
 NBasis=   130 NAE=     9 NBE=     8 NFC=     2 NFV=     0
 NROrb=    128 NOA=     7 NOB=     6 NVA=   121 NVB=   122

 **** Warning!!: The largest alpha MO coefficient is  0.11578370D+02


 **** Warning!!: The largest beta MO coefficient is  0.11564569D+02

 DoSCS=T DFT=T ScalE2(SS,OS)=  0.270000  0.270000
 Fully direct method using O(ONN) memory.
 JobTyp=2 Pass  1:  I=   3 to   9 NPSUse=  4 ParTrn=T ParDer=T DoDerP=T.
 JobTyp=3 Pass  1:  I=   3 to   8 NPSUse=  4 ParTrn=T ParDer=T DoDerP=T.
 Spin components of T(2) and E(2):
     alpha-alpha T2 =       0.2056837959D-01 E2=     -0.1346703608D-01
     alpha-beta  T2 =       0.1173979554D+00 E2=     -0.8484776233D-01
     beta-beta   T2 =       0.1431303354D-01 E2=     -0.9214431362D-02
 (S**2,0)=  0.75629D+00           (S**2,1)=  0.74746D+00
 Scaling Projection term by:   0.270000
 E(PUHF)=      -0.78999009912D+02        E(PMP2)=      -0.79104335449D+02
 E2(B2PLYPD3) =    -0.1075292298D+00 E(B2PLYPD3) =    -0.79104141534034D+02
          IDoAtm=1111111
          Differentiating once with respect to electric field.
                with respect to dipole field.
          Differentiating once with respect to nuclear coordinates.
 Keep R1 and R2 ints in memory in symmetry-blocked form, NReq=54534368.
          There are     1 degrees of freedom in the 1st order CPHF.  IDoFFX=0 NUNeed=     1.
 LinEq1:  Iter=  0 NonCon=     1 RMS=7.11D-04 Max=1.99D-02 NDo=     1
 AX will form     1 AO Fock derivatives at one time.
 LinEq1:  Iter=  1 NonCon=     1 RMS=2.78D-04 Max=4.86D-03 NDo=     1
 LinEq1:  Iter=  2 NonCon=     1 RMS=9.22D-05 Max=9.76D-04 NDo=     1
 LinEq1:  Iter=  3 NonCon=     1 RMS=1.90D-05 Max=2.63D-04 NDo=     1
 LinEq1:  Iter=  4 NonCon=     1 RMS=8.20D-06 Max=1.41D-04 NDo=     1
 LinEq1:  Iter=  5 NonCon=     1 RMS=2.67D-06 Max=3.76D-05 NDo=     1
 LinEq1:  Iter=  6 NonCon=     1 RMS=7.53D-07 Max=7.76D-06 NDo=     1
 LinEq1:  Iter=  7 NonCon=     1 RMS=1.41D-07 Max=1.23D-06 NDo=     1
 LinEq1:  Iter=  8 NonCon=     1 RMS=3.09D-08 Max=3.97D-07 NDo=     1
 LinEq1:  Iter=  9 NonCon=     1 RMS=7.51D-09 Max=1.17D-07 NDo=     1
 LinEq1:  Iter= 10 NonCon=     1 RMS=1.41D-09 Max=1.77D-08 NDo=     1
 LinEq1:  Iter= 11 NonCon=     1 RMS=4.04D-10 Max=6.48D-09 NDo=     1
 LinEq1:  Iter= 12 NonCon=     1 RMS=1.06D-10 Max=1.17D-09 NDo=     1
 LinEq1:  Iter= 13 NonCon=     0 RMS=1.69D-11 Max=1.39D-10 NDo=     1
 Linear equations converged to 1.000D-10 1.000D-09 after    13 iterations.
 End of Minotr F.D. properties file   721 does not exist.
 End of Minotr F.D. properties file   722 does not exist.
 End of Minotr F.D. properties file   788 does not exist.
 Calling FoFJK, ICntrl=  10002127 FMM=F ISym2X=1 I1Cent= 0 IOpClX= 1 NMat=1 NMatS=1 NMatT=0.
 ***** Axes restored to original set *****
 -------------------------------------------------------------------
 Center     Atomic                   Forces (Hartrees/Bohr)
 Number     Number              X              Y              Z
 -------------------------------------------------------------------
      1        6           0.000138312   -0.001924428    0.000000000
      2        1          -0.000338042   -0.001281693    0.000784615
      3        1          -0.000350619   -0.001273240    0.000000000
      4        1          -0.000338042   -0.001281693   -0.000784615
      5        6           0.002879404    0.002039753    0.000000000
      6        1          -0.000995507    0.001860650   -0.000507533
      7        1          -0.000995507    0.001860650    0.000507533
 -------------------------------------------------------------------
 Cartesian Forces:  Max     0.002879404 RMS     0.001236060

 GradGradGradGradGradGradGradGradGradGradGradGradGradGradGradGradGradGrad
 Berny optimization.
 Using GEDIIS/GDIIS optimizer.
 FormGI is forming the generalized inverse of G from B-inverse, IUseBI=4.
 Internal  Forces:  Max     0.005769213 RMS     0.001638380
 Search for a local minimum.
 Step number   3 out of a maximum of   31
 All quantities printed in internal units (Hartrees-Bohrs-Radians)
 Mixed Optimization -- RFO/linear search
 Update second derivatives using D2CorX and points    2    3
 DE= -2.98D-03 DEPred=-1.84D-03 R= 1.62D+00
 TightC=F SS=  1.41D+00  RLast= 5.08D-01 DXNew= 8.4853D-01 1.5250D+00
 Trust test= 1.62D+00 RLast= 5.08D-01 DXMaxT set to 8.49D-01
 ITU=  1  1  0
 Use linear search instead of GDIIS.
     Eigenvalues ---    0.00508   0.01593   0.06910   0.07098   0.15767
     Eigenvalues ---    0.15969   0.16000   0.16000   0.18953   0.32423
     Eigenvalues ---    0.33140   0.33409   0.34358   0.34373   0.34587
 RFO step:  Lambda=-3.58869438D-04 EMin= 5.08306435D-03
 Quartic linear search produced a step of  0.12766.
 Iteration  1 RMS(Cart)=  0.02187528 RMS(Int)=  0.00179947
 Iteration  2 RMS(Cart)=  0.00061263 RMS(Int)=  0.00168957
 Iteration  3 RMS(Cart)=  0.00000038 RMS(Int)=  0.00168957
 ClnCor:  largest displacement from symmetrization is 2.76D-10 for atom     7.
 Variable       Old X    -DE/DX   Delta X   Delta X   Delta X     New X
                                 (Linear)    (Quad)   (Total)
    R1        2.05516   0.00126  -0.00053   0.00458   0.00406   2.05922
    R2        2.07430   0.00014   0.00111   0.00087   0.00198   2.07628
    R3        2.05516   0.00126  -0.00053   0.00458   0.00406   2.05922
    R4        2.79211   0.00577  -0.00736   0.02158   0.01422   2.80633
    R5        2.03603   0.00120  -0.00302   0.00508   0.00205   2.03808
    R6        2.03603   0.00120  -0.00302   0.00508   0.00205   2.03808
    A1        1.86665  -0.00116  -0.00188  -0.00729  -0.00920   1.85744
    A2        1.89503  -0.00086   0.00123  -0.00623  -0.00500   1.89003
    A3        1.94759   0.00074  -0.00097   0.00292   0.00194   1.94953
    A4        1.86665  -0.00116  -0.00188  -0.00729  -0.00920   1.85744
    A5        1.93657   0.00150   0.00434   0.01381   0.01812   1.95469
    A6        1.94759   0.00074  -0.00097   0.00292   0.00194   1.94953
    A7        2.08948   0.00121   0.00457   0.00834   0.00850   2.09798
    A8        2.08948   0.00121   0.00457   0.00834   0.00850   2.09798
    A9        2.05493  -0.00183   0.01410  -0.00079   0.00878   2.06371
    D1       -2.80232   0.00084   0.02529   0.02834   0.05394  -2.74839
    D2        0.67876  -0.00078  -0.02549  -0.02446  -0.05024   0.62853
    D3        1.40105   0.00081   0.02539   0.02640   0.05209   1.45314
    D4       -1.40105  -0.00081  -0.02539  -0.02640  -0.05209  -1.45314
    D5       -0.67876   0.00078   0.02549   0.02446   0.05024  -0.62853
    D6        2.80232  -0.00084  -0.02529  -0.02834  -0.05394   2.74839
         Item               Value     Threshold  Converged?
 Maximum Force            0.005769     0.000450     NO 
 RMS     Force            0.001638     0.000300     NO 
 Maximum Displacement     0.061127     0.001800     NO 
 RMS     Displacement     0.021600     0.001200     NO 
 Predicted change in Energy=-1.953389D-04
 GradGradGradGradGradGradGradGradGradGradGradGradGradGradGradGradGradGrad

                          Input orientation:                          
 ---------------------------------------------------------------------
 Center     Atomic      Atomic             Coordinates (Angstroms)
 Number     Number       Type             X           Y           Z
 ---------------------------------------------------------------------
      1          6           0        0.051868   -0.703413    0.000000
      2          1           0       -0.451530   -1.095810    0.883200
      3          1           0        1.061730   -1.136270    0.000000
      4          1           0       -0.451530   -1.095810   -0.883200
      5          6           0        0.083117    0.781303    0.000000
      6          1           0        0.203925    1.321478   -0.925630
      7          1           0        0.203925    1.321478    0.925630
 ---------------------------------------------------------------------
                    Distance matrix (angstroms):
                    1          2          3          4          5
     1  C    0.000000
     2  H    1.089692   0.000000
     3  H    1.098720   1.752608   0.000000
     4  H    1.089692   1.766401   1.752608   0.000000
     5  C    1.485044   2.142298   2.152851   2.142298   0.000000
     6  H    2.231613   3.089461   2.762815   2.504936   1.078506
     7  H    2.231613   2.504936   2.762815   3.089461   1.078506
                    6          7
     6  H    0.000000
     7  H    1.851260   0.000000
 Stoichiometry    C2H5(2)
 Framework group  CS[SG(C2H),X(H4)]
 Deg. of freedom     9
 Full point group                 CS      NOp   2
 Largest Abelian subgroup         CS      NOp   2
 Largest concise Abelian subgroup CS      NOp   2
                         Standard orientation:                         
 ---------------------------------------------------------------------
 Center     Atomic      Atomic             Coordinates (Angstroms)
 Number     Number       Type             X           Y           Z
 ---------------------------------------------------------------------
      1          6           0       -0.014560   -0.691073    0.000000
      2          1           0       -0.509590   -1.093975    0.883200
      3          1           0        1.004187   -1.102584    0.000000
      4          1           0       -0.509590   -1.093975   -0.883200
      5          6           0       -0.014560    0.793972    0.000000
      6          1           0        0.094855    1.336570   -0.925630
      7          1           0        0.094855    1.336570    0.925630
 ---------------------------------------------------------------------
 Rotational constants (GHZ):         104.0321810          22.8854941          21.2133798
 Standard basis: CC-pVTZ (5D, 7F)
 There are    89 symmetry adapted cartesian basis functions of A'  symmetry.
 There are    56 symmetry adapted cartesian basis functions of A"  symmetry.
 There are    78 symmetry adapted basis functions of A'  symmetry.
 There are    52 symmetry adapted basis functions of A"  symmetry.
   130 basis functions,   189 primitive gaussians,   145 cartesian basis functions
     9 alpha electrons        8 beta electrons
       nuclear repulsion energy        37.0552465262 Hartrees.
 NAtoms=    7 NActive=    7 NUniq=    5 SFac= 1.96D+00 NAtFMM=   60 NAOKFM=F Big=F
 Integral buffers will be    131072 words long.
 Regular integral format.
 Two-electron integral symmetry is turned on.
 Nuclear repulsion after empirical dispersion term =       37.0532546748 Hartrees.
 One-electron integrals computed using PRISM.
 NBasis=   130 RedAO= T EigKep=  1.16D-03  NBF=    78    52
 NBsUse=   130 1.00D-06 EigRej= -1.00D+00 NBFU=    78    52
 Initial guess from the checkpoint file:  "D:\study\G16W\Scratch\Gau-9488.chk"
 B after Tr=     0.000000    0.000000    0.000000
         Rot=    0.999994    0.000000    0.000000   -0.003416 Ang=  -0.39 deg.
 Initial guess orbital symmetries:
 Alpha Orbitals:
       Occupied  (A') (A') (A') (A') (A") (A') (A') (A") (A')
       Virtual   (A') (A') (A") (A') (A") (A') (A') (A") (A') (A')
                 (A") (A') (A") (A') (A') (A') (A') (A") (A') (A")
                 (A') (A") (A') (A") (A") (A') (A") (A') (A') (A')
                 (A") (A') (A") (A') (A') (A") (A') (A") (A') (A")
                 (A') (A') (A") (A') (A') (A') (A") (A') (A') (A")
                 (A') (A") (A') (A') (A") (A') (A") (A') (A") (A")
                 (A') (A') (A") (A') (A") (A') (A') (A") (A") (A')
                 (A") (A") (A') (A') (A") (A') (A") (A') (A") (A")
                 (A') (A') (A") (A') (A") (A') (A') (A') (A") (A')
                 (A') (A") (A') (A") (A") (A') (A') (A") (A') (A')
                 (A') (A") (A') (A") (A') (A") (A') (A') (A") (A')
                 (A") (A') (A") (A') (A') (A") (A") (A') (A") (A')
                 (A')
 Beta  Orbitals:
       Occupied  (A') (A') (A') (A') (A") (A') (A') (A")
       Virtual   (A') (A') (A') (A") (A') (A") (A') (A') (A") (A')
                 (A") (A') (A') (A") (A') (A') (A') (A') (A") (A')
                 (A") (A') (A") (A') (A") (A") (A') (A") (A') (A')
                 (A') (A") (A') (A") (A') (A') (A") (A') (A") (A')
                 (A") (A') (A') (A") (A') (A') (A') (A") (A') (A')
                 (A") (A') (A") (A') (A') (A") (A') (A") (A') (A")
                 (A") (A') (A') (A") (A') (A") (A') (A") (A') (A")
                 (A') (A") (A") (A') (A') (A") (A') (A") (A') (A")
                 (A") (A') (A') (A") (A') (A") (A') (A') (A') (A")
                 (A') (A') (A") (A') (A") (A") (A') (A') (A") (A')
                 (A') (A') (A") (A') (A") (A') (A") (A') (A') (A")
                 (A') (A") (A') (A") (A') (A') (A") (A") (A') (A")
                 (A') (A')
 Initial guess <Sx>= 0.0000 <Sy>= 0.0000 <Sz>= 0.5000 <S**2>= 0.7563 S= 0.5032
 ExpMin= 1.03D-01 ExpMax= 8.24D+03 ExpMxC= 2.81D+02 IAcc=2 IRadAn=         4 AccDes= 0.00D+00
 Harris functional with IExCor=  419 and IRadAn=       4 diagonalized for initial guess.
 HarFok:  IExCor=  419 AccDes= 0.00D+00 IRadAn=         4 IDoV= 1 UseB2=F ITyADJ=14
 ICtDFT=  3500011 ScaDFX=  1.000000  1.000000  1.000000  1.000000
 FoFCou: FMM=F IPFlag=           0 FMFlag=      100000 FMFlg1=           0
         NFxFlg=           0 DoJE=T BraDBF=F KetDBF=T FulRan=T
         wScrn=  0.000000 ICntrl=       500 IOpCl=  0 I1Cent=   200000004 NGrid=           0
         NMat0=    1 NMatS0=      1 NMatT0=    0 NMatD0=    1 NMtDS0=    0 NMtDT0=    0
 Petite list used in FoFCou.
 Keep R1 and R2 ints in memory in symmetry-blocked form, NReq=54533109.
 Requested convergence on RMS density matrix=1.00D-08 within 128 cycles.
 Requested convergence on MAX density matrix=1.00D-06.
 Requested convergence on             energy=1.00D-06.
 No special actions if energy rises.
 Integral accuracy reduced to 1.0D-05 until final iterations.
 Initial convergence to 1.0D-05 achieved.  Increase integral accuracy.
 SCF Done:  E(UB2PLYPD3) =  -78.9968005641     A.U. after   11 cycles
            NFock= 11  Conv=0.31D-08     -V/T= 2.0046
 <Sx>= 0.0000 <Sy>= 0.0000 <Sz>= 0.5000 <S**2>= 0.7565 S= 0.5032
 <L.S>= 0.000000000000E+00
 Annihilation of the first spin contaminant:
 S**2 before annihilation     0.7565,   after     0.7500
 DoSCS=T DFT=T ScalE2(SS,OS)=  0.270000  0.270000
 ExpMin= 1.03D-01 ExpMax= 8.24D+03 ExpMxC= 2.81D+02 IAcc=3 IRadAn=         5 AccDes= 0.00D+00
 HarFok:  IExCor=  205 AccDes= 0.00D+00 IRadAn=         5 IDoV=-2 UseB2=F ITyADJ=14
 ICtDFT= 12500011 ScaDFX=  1.000000  1.000000  1.000000  1.000000
 Range of M.O.s used for correlation:     3   130
 NBasis=   130 NAE=     9 NBE=     8 NFC=     2 NFV=     0
 NROrb=    128 NOA=     7 NOB=     6 NVA=   121 NVB=   122

 **** Warning!!: The largest alpha MO coefficient is  0.11461478D+02


 **** Warning!!: The largest beta MO coefficient is  0.11394418D+02

 DoSCS=T DFT=T ScalE2(SS,OS)=  0.270000  0.270000
 Fully direct method using O(ONN) memory.
 JobTyp=2 Pass  1:  I=   3 to   9 NPSUse=  4 ParTrn=T ParDer=T DoDerP=T.
 JobTyp=3 Pass  1:  I=   3 to   8 NPSUse=  4 ParTrn=T ParDer=T DoDerP=T.
 Spin components of T(2) and E(2):
     alpha-alpha T2 =       0.2065071747D-01 E2=     -0.1348078861D-01
     alpha-beta  T2 =       0.1178231726D+00 E2=     -0.8490642329D-01
     beta-beta   T2 =       0.1431904962D-01 E2=     -0.9195692549D-02
 (S**2,0)=  0.75650D+00           (S**2,1)=  0.74741D+00
 Scaling Projection term by:   0.270000
 E(PUHF)=      -0.78999257132D+02        E(PMP2)=      -0.79104584289D+02
 E2(B2PLYPD3) =    -0.1075829044D+00 E(B2PLYPD3) =    -0.79104383468543D+02
          IDoAtm=1111111
          Differentiating once with respect to electric field.
                with respect to dipole field.
          Differentiating once with respect to nuclear coordinates.
 Keep R1 and R2 ints in memory in symmetry-blocked form, NReq=54534368.
          There are     1 degrees of freedom in the 1st order CPHF.  IDoFFX=0 NUNeed=     1.
 LinEq1:  Iter=  0 NonCon=     1 RMS=7.10D-04 Max=1.98D-02 NDo=     1
 AX will form     1 AO Fock derivatives at one time.
 LinEq1:  Iter=  1 NonCon=     1 RMS=2.80D-04 Max=4.88D-03 NDo=     1
 LinEq1:  Iter=  2 NonCon=     1 RMS=9.31D-05 Max=9.52D-04 NDo=     1
 LinEq1:  Iter=  3 NonCon=     1 RMS=1.94D-05 Max=2.75D-04 NDo=     1
 LinEq1:  Iter=  4 NonCon=     1 RMS=8.51D-06 Max=1.49D-04 NDo=     1
 LinEq1:  Iter=  5 NonCon=     1 RMS=2.71D-06 Max=3.87D-05 NDo=     1
 LinEq1:  Iter=  6 NonCon=     1 RMS=7.58D-07 Max=7.75D-06 NDo=     1
 LinEq1:  Iter=  7 NonCon=     1 RMS=1.44D-07 Max=1.27D-06 NDo=     1
 LinEq1:  Iter=  8 NonCon=     1 RMS=3.21D-08 Max=4.04D-07 NDo=     1
 LinEq1:  Iter=  9 NonCon=     1 RMS=7.88D-09 Max=1.21D-07 NDo=     1
 LinEq1:  Iter= 10 NonCon=     1 RMS=1.55D-09 Max=2.02D-08 NDo=     1
 LinEq1:  Iter= 11 NonCon=     1 RMS=4.75D-10 Max=6.65D-09 NDo=     1
 LinEq1:  Iter= 12 NonCon=     1 RMS=1.10D-10 Max=9.75D-10 NDo=     1
 LinEq1:  Iter= 13 NonCon=     0 RMS=1.69D-11 Max=1.41D-10 NDo=     1
 Linear equations converged to 1.000D-10 1.000D-09 after    13 iterations.
 End of Minotr F.D. properties file   721 does not exist.
 End of Minotr F.D. properties file   722 does not exist.
 End of Minotr F.D. properties file   788 does not exist.
 Calling FoFJK, ICntrl=  10002127 FMM=F ISym2X=1 I1Cent= 0 IOpClX= 1 NMat=1 NMatS=1 NMatT=0.
 ***** Axes restored to original set *****
 -------------------------------------------------------------------
 Center     Atomic                   Forces (Hartrees/Bohr)
 Number     Number              X              Y              Z
 -------------------------------------------------------------------
      1        6          -0.000123900   -0.000621940    0.000000000
      2        1          -0.000105996   -0.000042853   -0.000100959
      3        1          -0.000451952    0.000722251    0.000000000
      4        1          -0.000105996   -0.000042853    0.000100959
      5        6           0.001621768   -0.001881103    0.000000000
      6        1          -0.000416962    0.000933248    0.000556300
      7        1          -0.000416962    0.000933248   -0.000556300
 -------------------------------------------------------------------
 Cartesian Forces:  Max     0.001881103 RMS     0.000691852

 GradGradGradGradGradGradGradGradGradGradGradGradGradGradGradGradGradGrad
 Berny optimization.
 Using GEDIIS/GDIIS optimizer.
 FormGI is forming the generalized inverse of G from B-inverse, IUseBI=4.
 Internal  Forces:  Max     0.001468252 RMS     0.000503798
 Search for a local minimum.
 Step number   4 out of a maximum of   31
 All quantities printed in internal units (Hartrees-Bohrs-Radians)
 Mixed Optimization -- En-DIIS/RFO-DIIS
 Update second derivatives using D2CorX and points    3    4
 DE= -2.42D-04 DEPred=-1.95D-04 R= 1.24D+00
 TightC=F SS=  1.41D+00  RLast= 1.31D-01 DXNew= 1.4270D+00 3.9448D-01
 Trust test= 1.24D+00 RLast= 1.31D-01 DXMaxT set to 8.49D-01
 ITU=  1  1  1  0
 Use linear search instead of GDIIS.
     Eigenvalues ---    0.00508   0.01075   0.06888   0.06963   0.15780
     Eigenvalues ---    0.15908   0.16000   0.16000   0.19053   0.32408
     Eigenvalues ---    0.33409   0.34116   0.34252   0.34358   0.37939
 RFO step:  Lambda=-4.71941225D-05 EMin= 5.08306435D-03
 Quartic linear search produced a step of  0.26657.
 Iteration  1 RMS(Cart)=  0.00845680 RMS(Int)=  0.00035632
 Iteration  2 RMS(Cart)=  0.00014840 RMS(Int)=  0.00032583
 Iteration  3 RMS(Cart)=  0.00000002 RMS(Int)=  0.00032583
 ClnCor:  largest displacement from symmetrization is 2.83D-11 for atom     7.
 Variable       Old X    -DE/DX   Delta X   Delta X   Delta X     New X
                                 (Linear)    (Quad)   (Total)
    R1        2.05922  -0.00002   0.00108  -0.00043   0.00065   2.05987
    R2        2.07628  -0.00070   0.00053  -0.00221  -0.00168   2.07460
    R3        2.05922  -0.00002   0.00108  -0.00043   0.00065   2.05987
    R4        2.80633   0.00000   0.00379  -0.00375   0.00004   2.80637
    R5        2.03808  -0.00006   0.00055  -0.00108  -0.00053   2.03755
    R6        2.03808  -0.00006   0.00055  -0.00108  -0.00053   2.03755
    A1        1.85744   0.00027  -0.00245   0.00236  -0.00010   1.85734
    A2        1.89003  -0.00015  -0.00133   0.00005  -0.00128   1.88874
    A3        1.94953   0.00018   0.00052   0.00013   0.00064   1.95016
    A4        1.85744   0.00027  -0.00245   0.00236  -0.00010   1.85734
    A5        1.95469  -0.00072   0.00483  -0.00473   0.00009   1.95479
    A6        1.94953   0.00018   0.00052   0.00013   0.00064   1.95016
    A7        2.09798   0.00082   0.00227   0.00496   0.00637   2.10435
    A8        2.09798   0.00082   0.00227   0.00496   0.00637   2.10435
    A9        2.06371  -0.00147   0.00234  -0.00463  -0.00315   2.06055
    D1       -2.74839   0.00028   0.01438   0.01261   0.02703  -2.72136
    D2        0.62853  -0.00034  -0.01339  -0.01285  -0.02628   0.60224
    D3        1.45314   0.00031   0.01388   0.01273   0.02666   1.47979
    D4       -1.45314  -0.00031  -0.01388  -0.01273  -0.02666  -1.47979
    D5       -0.62853   0.00034   0.01339   0.01285   0.02628  -0.60224
    D6        2.74839  -0.00028  -0.01438  -0.01261  -0.02703   2.72136
         Item               Value     Threshold  Converged?
 Maximum Force            0.001468     0.000450     NO 
 RMS     Force            0.000504     0.000300     NO 
 Maximum Displacement     0.025732     0.001800     NO 
 RMS     Displacement     0.008425     0.001200     NO 
 Predicted change in Energy=-3.111525D-05
 GradGradGradGradGradGradGradGradGradGradGradGradGradGradGradGradGradGrad

                          Input orientation:                          
 ---------------------------------------------------------------------
 Center     Atomic      Atomic             Coordinates (Angstroms)
 Number     Number       Type             X           Y           Z
 ---------------------------------------------------------------------
      1          6           0        0.054748   -0.704730    0.000000
[...]
  Atom  AN      X      Y      Z        X      Y      Z        X      Y      Z
     1   6     0.01  -0.13   0.00    -0.04   0.00   0.00     0.00   0.00  -0.04
     2   1    -0.23   0.46   0.11     0.35   0.13   0.27     0.39  -0.34   0.05
     3   1     0.26   0.57   0.00    -0.11  -0.21   0.00     0.00   0.00   0.68
     4   1    -0.23   0.46  -0.11     0.35   0.13  -0.27    -0.39   0.34   0.05
     5   6     0.00  -0.02   0.00    -0.01  -0.08   0.00     0.00   0.00  -0.02
     6   1     0.00   0.11   0.06     0.04   0.42   0.29     0.02   0.05   0.01
     7   1     0.00   0.11  -0.06     0.04   0.42  -0.29    -0.02  -0.05   0.01
                     10                     11                     12
                     A'                     A'                     A'
 Frequencies --   1498.1094              2985.2923              3070.3466
 Red. masses --      1.1325                 1.0577                 1.0720
 Frc consts  --      1.4975                 5.5536                 5.9539
 IR Inten    --      2.5561                24.6290                22.1676
  Atom  AN      X      Y      Z        X      Y      Z        X      Y      Z
     1   6     0.04   0.05   0.00    -0.06   0.04   0.00     0.07   0.03   0.00
     2   1    -0.33  -0.25  -0.33    -0.11  -0.06   0.15    -0.30  -0.24   0.56
     3   1     0.06   0.15   0.00     0.90  -0.34   0.00    -0.23   0.10   0.00
     4   1    -0.33  -0.25   0.33    -0.11  -0.06  -0.15    -0.30  -0.24  -0.56
     5   6     0.01  -0.08   0.00     0.00   0.00   0.00     0.00   0.00   0.00
     6   1     0.02   0.36   0.26     0.00   0.01   0.00     0.00   0.00   0.00
     7   1     0.02   0.36  -0.26     0.00   0.01   0.00     0.00   0.00   0.00
                     13                     14                     15
                     A"                     A'                     A"
 Frequencies --   3114.8558              3174.7147              3277.7883
 Red. masses --      1.1020                 1.0507                 1.1189
 Frc consts  --      6.2995                 6.2391                 7.0831
 IR Inten    --     20.3099                14.5808                13.1405
  Atom  AN      X      Y      Z        X      Y      Z        X      Y      Z
     1   6     0.00   0.00  -0.09     0.00   0.00   0.00     0.00   0.00  -0.01
     2   1    -0.33  -0.26   0.57     0.00   0.00   0.00    -0.02  -0.02   0.04
     3   1     0.00   0.00  -0.03     0.01   0.00   0.00     0.00   0.00   0.00
     4   1     0.33   0.26   0.57     0.00   0.00   0.00     0.02   0.02   0.04
     5   6     0.00   0.00   0.01     0.01   0.06   0.00     0.00   0.00  -0.10
     6   1     0.01   0.02  -0.04    -0.04  -0.35   0.61    -0.05  -0.36   0.60
     7   1    -0.01  -0.02  -0.04    -0.04  -0.35  -0.61     0.05   0.36   0.60

 -------------------
 - Thermochemistry -
 -------------------
 Temperature   298.150 Kelvin.  Pressure   1.00000 Atm.
 Atom     1 has atomic number  6 and mass  12.00000
 Atom     2 has atomic number  1 and mass   1.00783
 Atom     3 has atomic number  1 and mass   1.00783
 Atom     4 has atomic number  1 and mass   1.00783
 Atom     5 has atomic number  6 and mass  12.00000
 Atom     6 has atomic number  1 and mass   1.00783
 Atom     7 has atomic number  1 and mass   1.00783
 Molecular mass:    29.03913 amu.
 Principal axes and moments of inertia in atomic units:
                           1         2         3
     Eigenvalues --    17.27469  78.95715  85.17362
           X            0.00830   0.00000   0.99997
           Y            0.99997   0.00000  -0.00830
           Z            0.00000   1.00000   0.00000
 This molecule is an asymmetric top.
 Rotational symmetry number  1.
 Rotational temperatures (Kelvin)      5.01392     1.09697     1.01691
 Rotational constants (GHZ):         104.47312    22.85722    21.18897
 Zero-point vibrational energy     156744.3 (Joules/Mol)
                                   37.46278 (Kcal/Mol)
 Warning -- explicit consideration of   2 degrees of freedom as
           vibrations may cause significant error
 Vibrational temperatures:    172.70   689.98  1177.68  1425.54  1544.56
          (Kelvin)           1737.43  2033.38  2135.03  2154.26  2155.45
                             4295.17  4417.54  4481.58  4567.71  4716.01
 
 Zero-point correction=                           0.059701 (Hartree/Particle)
 Thermal correction to Energy=                    0.063648
 Thermal correction to Enthalpy=                  0.064592
 Thermal correction to Gibbs Free Energy=         0.035578
 Sum of electronic and zero-point Energies=            -79.044737
 Sum of electronic and thermal Energies=               -79.040790
 Sum of electronic and thermal Enthalpies=             -79.039846
 Sum of electronic and thermal Free Energies=          -79.068860
 
                     E (Thermal)             CV                S
                      KCal/Mol        Cal/Mol-Kelvin    Cal/Mol-Kelvin
 Total                   39.939             11.033             61.065
 Electronic               0.000              0.000              1.377
 Translational            0.889              2.981             36.032
 Rotational               0.889              2.981             19.391
 Vibrational             38.162              5.071              4.264
 Vibration     1          0.609              1.933              3.100
 Vibration     2          0.836              1.295              0.711
                       Q            Log10(Q)             Ln(Q)
 Total Bot       0.431813D-16        -16.364704        -37.681125
 Total V=0       0.124654D+12         11.095706         25.548808
 Vib (Bot)       0.909782D-27        -27.041063        -62.264348
 Vib (Bot)    1  0.170252D+01          0.231093          0.532112
 Vib (Bot)    2  0.348882D+00         -0.457322         -1.053022
 Vib (V=0)       0.262632D+01          0.419348          0.965585
 Vib (V=0)    1  0.227443D+01          0.356872          0.821728
 Vib (V=0)    2  0.110969D+01          0.045201          0.104078
 Electronic      0.200000D+01          0.301030          0.693147
 Translational   0.615077D+07          6.788929         15.632087
 Rotational      0.385833D+04          3.586399          8.257989
 ***** Axes restored to original set *****
 -------------------------------------------------------------------
 Center     Atomic                   Forces (Hartrees/Bohr)
 Number     Number              X              Y              Z
 -------------------------------------------------------------------
      1        6          -0.000160683   -0.000145953    0.000000000
      2        1           0.000028696    0.000068655   -0.000055589
      3        1           0.000043556    0.000107851    0.000000000
      4        1           0.000028696    0.000068655    0.000055589
      5        6           0.000050937   -0.000294237    0.000000000
      6        1           0.000004399    0.000097514    0.000060271
      7        1           0.000004399    0.000097514   -0.000060271
 -------------------------------------------------------------------
 Cartesian Forces:  Max     0.000294237 RMS     0.000095965
 FormGI is forming the generalized inverse of G from B-inverse, IUseBI=4.

 GradGradGradGradGradGradGradGradGradGradGradGradGradGradGradGradGradGrad
 Berny optimization.
 Internal  Forces:  Max     0.000155923 RMS     0.000069085
 Search for a local minimum.
 Step number   1 out of a maximum of    2
 All quantities printed in internal units (Hartrees-Bohrs-Radians)
 Second derivative matrix not updated -- analytic derivatives used.
 ITU=  0
     Eigenvalues ---    0.00034   0.00711   0.05648   0.05730   0.10291
     Eigenvalues ---    0.10668   0.11947   0.13728   0.16332   0.31106
     Eigenvalues ---    0.33139   0.33758   0.35006   0.36735   0.36947
 Angle between quadratic step and forces=  24.57 degrees.
 Linear search not attempted -- first point.
 Iteration  1 RMS(Cart)=  0.00046964 RMS(Int)=  0.00000036
 Iteration  2 RMS(Cart)=  0.00000035 RMS(Int)=  0.00000010
 ClnCor:  largest displacement from symmetrization is 3.98D-10 for atom     7.
 Variable       Old X    -DE/DX   Delta X   Delta X   Delta X     New X
                                 (Linear)    (Quad)   (Total)
    R1        2.05939  -0.00008   0.00000  -0.00029  -0.00029   2.05909
    R2        2.07384   0.00000   0.00000  -0.00001  -0.00001   2.07383
    R3        2.05939  -0.00008   0.00000  -0.00029  -0.00029   2.05909
    R4        2.80567  -0.00010   0.00000  -0.00026  -0.00026   2.80541
    R5        2.03762   0.00000   0.00000   0.00004   0.00004   2.03766
    R6        2.03762   0.00000   0.00000   0.00004   0.00004   2.03766
    A1        1.85868   0.00008   0.00000   0.00055   0.00055   1.85923
    A2        1.88870   0.00004   0.00000   0.00050   0.00050   1.88920
    A3        1.95036  -0.00002   0.00000  -0.00015  -0.00015   1.95021
    A4        1.85868   0.00008   0.00000   0.00055   0.00055   1.85923
    A5        1.95193  -0.00015   0.00000  -0.00121  -0.00121   1.95073
    A6        1.95036  -0.00002   0.00000  -0.00015  -0.00015   1.95021
    A7        2.10851   0.00008   0.00000   0.00081   0.00081   2.10932
    A8        2.10851   0.00008   0.00000   0.00081   0.00081   2.10932
    A9        2.05582  -0.00016   0.00000  -0.00152  -0.00152   2.05430
    D1       -2.70915  -0.00001   0.00000   0.00008   0.00008  -2.70907
    D2        0.58982  -0.00002   0.00000  -0.00051  -0.00051   0.58931
    D3        1.49211   0.00000   0.00000   0.00029   0.00029   1.49240
    D4       -1.49211   0.00000   0.00000  -0.00029  -0.00029  -1.49240
    D5       -0.58982   0.00002   0.00000   0.00051   0.00051  -0.58931
    D6        2.70915   0.00001   0.00000  -0.00008  -0.00008   2.70907
         Item               Value     Threshold  Converged?
 Maximum Force            0.000156     0.000450     YES
 RMS     Force            0.000069     0.000300     YES
 Maximum Displacement     0.001018     0.001800     YES
 RMS     Displacement     0.000470     0.001200     YES
 Predicted change in Energy=-3.792249D-07
 Optimization completed.
    -- Stationary point found.
                           ----------------------------
                           !   Optimized Parameters   !
                           ! (Angstroms and Degrees)  !
 --------------------------                            --------------------------
 ! Name  Definition              Value          Derivative Info.                !
 --------------------------------------------------------------------------------
 ! R1    R(1,2)                  1.0898         -DE/DX =   -0.0001              !
 ! R2    R(1,3)                  1.0974         -DE/DX =    0.0                 !
 ! R3    R(1,4)                  1.0898         -DE/DX =   -0.0001              !
 ! R4    R(1,5)                  1.4847         -DE/DX =   -0.0001              !
 ! R5    R(5,6)                  1.0783         -DE/DX =    0.0                 !
 ! R6    R(5,7)                  1.0783         -DE/DX =    0.0                 !
 ! A1    A(2,1,3)              106.4946         -DE/DX =    0.0001              !
 ! A2    A(2,1,4)              108.2145         -DE/DX =    0.0                 !
 ! A3    A(2,1,5)              111.7472         -DE/DX =    0.0                 !
 ! A4    A(3,1,4)              106.4946         -DE/DX =    0.0001              !
 ! A5    A(3,1,5)              111.8375         -DE/DX =   -0.0002              !
 ! A6    A(4,1,5)              111.7472         -DE/DX =    0.0                 !
 ! A7    A(1,5,6)              120.809          -DE/DX =    0.0001              !
 ! A8    A(1,5,7)              120.809          -DE/DX =    0.0001              !
 ! A9    A(6,5,7)              117.79           -DE/DX =   -0.0002              !
 ! D1    D(2,1,5,6)           -155.2227         -DE/DX =    0.0                 !
 ! D2    D(2,1,5,7)             33.794          -DE/DX =    0.0                 !
 ! D3    D(3,1,5,6)             85.4916         -DE/DX =    0.0                 !
 ! D4    D(3,1,5,7)            -85.4916         -DE/DX =    0.0                 !
 ! D5    D(4,1,5,6)            -33.794          -DE/DX =    0.0                 !
 ! D6    D(4,1,5,7)            155.2227         -DE/DX =    0.0                 !
 --------------------------------------------------------------------------------
 GradGradGradGradGradGradGradGradGradGradGradGradGradGradGradGradGradGrad


 ----------------------------------------------------------------------

 Electric dipole moment (input orientation):
 (Debye = 10**-18 statcoulomb cm , SI units = C m)
                  (au)            (Debye)         (10**-30 SI)
   Tot        0.108493D+00      0.275761D+00      0.919841D+00
   x          0.442844D-01      0.112560D+00      0.375459D+00
   y         -0.990434D-01     -0.251743D+00     -0.839725D+00
   z          0.000000D+00      0.000000D+00      0.000000D+00

 Dipole polarizability, Alpha (input orientation).
 (esu units = cm**3 , SI units = C**2 m**2 J**-1)
 Alpha(0;0):
               (au)            (10**-24 esu)      (10**-40 SI)
   iso        0.248302D+02      0.367946D+01      0.409395D+01
   aniso      0.653780D+01      0.968802D+00      0.107794D+01
   xx         0.212609D+02      0.315054D+01      0.350544D+01
   yx         0.745865D-01      0.110526D-01      0.122976D-01
   yy         0.287798D+02      0.426473D+01      0.474515D+01
   zx         0.000000D+00      0.000000D+00      0.000000D+00
   zy         0.000000D+00      0.000000D+00      0.000000D+00
   zz         0.244500D+02      0.362311D+01      0.403126D+01

 ----------------------------------------------------------------------

 Dipole orientation:
     6         -0.40980192         -0.18323109          1.26074044
     1         -2.16356541          0.86013894          1.53781261
     1          0.86271251          0.38573697          2.79625299
     1         -0.80160420         -2.18592886          1.53781261
     6          0.71017107          0.31753247         -1.26248683
     1          1.95183852         -1.03840129         -2.14089930
     1          0.52757803          2.14700076         -2.14089930

 Electric dipole moment (dipole orientation):
 (Debye = 10**-18 statcoulomb cm , SI units = C m)
                  (au)            (Debye)         (10**-30 SI)
   Tot        0.108493D+00      0.275761D+00      0.919841D+00
   x          0.000000D+00      0.000000D+00      0.000000D+00
   y          0.000000D+00      0.000000D+00      0.000000D+00
   z          0.108493D+00      0.275761D+00      0.919841D+00

 Dipole polarizability, Alpha (dipole orientation).
 (esu units = cm**3 , SI units = C**2 m**2 J**-1)
 Alpha(0;0):
               (au)            (10**-24 esu)      (10**-40 SI)
   iso        0.248302D+02      0.367946D+01      0.409395D+01
   aniso      0.653780D+01      0.968802D+00      0.107794D+01
   xx         0.228825D+02      0.339084D+01      0.377282D+01
   yx        -0.700831D+00     -0.103852D+00     -0.115551D+00
   yy         0.241366D+02      0.357668D+01      0.397959D+01
   zx        -0.260313D+01     -0.385744D+00     -0.429198D+00
   zy        -0.116391D+01     -0.172474D+00     -0.191904D+00
   zz         0.274715D+02      0.407086D+01      0.452944D+01

 ----------------------------------------------------------------------
 1|1|UNPC-X500|Freq|UB2PLYPD3-FC|CC-pVTZ|C2H5(2)|SOBEREVA|11-May-2020|0
 ||#N Geom=AllCheck Guess=TCheck SCRF=Check GenChk UB2PLYPD3(FC)/CC-pVT
 Z Freq||test||0,2|C,0.0554601546,-0.7060092092,0.0000000017|H,-0.45238
 49372,-1.0936864016,0.882848858|H,1.0605141329,-1.1467106493,0.0000000
 028|H,-0.4523849372,-1.0936864059,-0.8828488527|C,0.1031111351,0.77792
 21024,-0.0000000019|H,0.193594421,1.3275637095,-0.9232324253|H,0.19359
 4421,1.327563714,0.9232324188||Version=EM64W-G16RevA.03|State=2-A'|HF=
 -78.9968491|MP2=-79.1044376|PUHF=-78.9993355|PMP2-0=-79.1046412|S2=0.7
 56584|S2-1=0.747386|S2A=0.750028|RMSD=1.086e-009|RMSF=9.597e-005|ZeroP
 oint=0.0597007|Thermal=0.0636475|Dipole=0.0442844,-0.0990434,0.|Dipole
 Deriv=0.1416359,0.0407875,0.,-0.006038,0.0046392,0.,0.,0.,0.0518292,0.
 0282061,-0.0572872,0.0791634,-0.0278197,-0.0052548,0.046953,0.0795431,
 0.0683795,-0.0668998,-0.1044101,0.0944471,0.,0.0641515,-0.0322757,0.,0
 .,0.,0.0784301,0.0282061,-0.0572872,-0.0791634,-0.0278197,-0.0052548,-
 0.046953,-0.0795431,-0.0683795,-0.0668998,-0.3688026,0.0313529,0.,0.03
 91268,0.1234982,0.,0.,0.,0.1207262,0.1375823,-0.0260065,0.0145563,-0.0
 208004,-0.042676,0.0391757,0.0127898,0.0677532,-0.0585929,0.1375823,-0
 .0260066,-0.0145563,-0.0208004,-0.042676,-0.0391757,-0.0127898,-0.0677
 532,-0.0585929|Polar=21.2608739,0.0745865,28.7798079,0.,0.,24.4499699|
 PG=CS [SG(C2H1),X(H4)]|NImag=0||0.49452843,0.02118948,0.48512162,0.,0.
 ,0.56996477,-0.10322607,-0.04610820,0.10034415,0.10971204,-0.04581751,
 -0.07622555,0.07137951,0.04647674,0.08723574,0.09945192,0.07070560,-0.
 22373053,-0.11148445,-0.08096774,0.24013077,-0.25069335,0.07920373,0.,
 -0.01578300,0.00542836,-0.00000211,0.27697523,0.09297200,-0.07488041,0
 .,-0.00966664,0.00442567,-0.00027100,-0.09708053,0.08976121,0.,0.,-0.0
 4273571,0.02606598,-0.01030941,-0.00045447,0.,0.,0.04347844,-0.1032260
 6,-0.04610820,-0.10034415,0.00807277,0.00686214,0.01321387,-0.01578300
 ,-0.00966664,-0.02606597,0.10971204,-0.04581752,-0.07622555,-0.0713795
 2,0.00686214,0.00311717,0.00874392,0.00542836,0.00442567,0.01030941,0.
 04647674,0.08723574,-0.09945192,-0.07070560,-0.22373053,-0.01321387,-0
 .00874392,-0.01960168,0.00000211,0.00027100,-0.00045447,0.11148445,0.0
 8096774,0.24013077,-0.04314070,-0.00729754,0.,0.00083007,-0.01230702,-
 0.00146489,0.00663094,0.02450874,0.,0.00083007,-0.01230702,0.00146489,
 0.05897927,-0.01389974,-0.24061742,0.,0.00188041,-0.01485199,0.0016430
 0,0.00609517,-0.02220247,0.,0.00188041,-0.01485199,-0.00164300,0.03781
 946,0.55168951,0.,0.,-0.08895979,-0.00132740,0.03030908,0.00137704,0.,
 0.,0.00029790,0.00132740,-0.03030908,0.00137704,0.,0.,0.63948332,0.002
 87888,-0.00043963,-0.00219643,0.00035635,-0.00110025,0.00120783,-0.000
 67341,-0.00053346,0.00099798,0.00003783,0.00045755,0.00092217,-0.01206
 482,-0.01688786,0.02422405,0.00619882,-0.00431335,-0.00858635,0.025519
 83,0.00074865,-0.00546425,-0.00026336,0.00046245,-0.00076484,0.0002037
 0,-0.00019309,0.00176321,-0.00040958,-0.01520831,-0.12958282,0.1254598
 5,0.01742819,0.13272194,0.00016686,-0.00375396,0.00459590,-0.00043724,
 -0.00098778,0.00136608,0.00034211,-0.00010247,-0.00006585,-0.00005283,
 0.00067974,0.00091279,0.01978317,0.12709705,-0.27678776,-0.02247884,-0
 .13672151,0.28474077,0.00287888,-0.00043963,0.00219643,0.00003783,0.00
 045755,-0.00092217,-0.00067341,-0.00053346,-0.00099798,0.00035635,-0.0
 0110025,-0.00120783,-0.01206483,-0.01688785,-0.02422405,0.00326635,0.0
 0107546,0.00267677,0.00619882,-0.00431335,-0.00858635,-0.02551983,-0.0
 0019309,0.00176321,0.00040958,0.00046245,-0.00076484,-0.00020370,0.000
 74865,-0.00546425,0.00026336,-0.01520831,-0.12958282,-0.12545985,0.001
 07546,0.00991310,0.01378894,0.01742819,0.13272194,-0.00016686,0.003753
 96,0.00459590,0.00005283,-0.00067974,0.00091279,-0.00034211,0.00010247
 ,-0.00006585,0.00043724,0.00098778,0.00136608,-0.01978317,-0.12709704,
 -0.27678775,-0.00267676,-0.01378894,-0.01476193,0.02247884,0.13672151,
 0.28474076||0.00016068,0.00014595,0.,-0.00002870,-0.00006866,0.0000555
 9,-0.00004356,-0.00010785,0.,-0.00002870,-0.00006866,-0.00005559,-0.00
 005094,0.00029424,0.,-0.00000440,-0.00009751,-0.00006027,-0.00000440,-
 0.00009751,0.00006027|||@


 ... IT CAN BE VERY DIFFICULT, IN THESE COMPLEX TIMES,
 TO UNDERSTAND JUST HOW SCIENTISTS DO WHAT THEY DO.

                     DON MOSER IN THE FEBRUARY 1979 SMITHSONIAN
 Job cpu time:       0 days  0 hours 25 minutes 31.0 seconds.
 Elapsed time:       0 days  0 hours 25 minutes 29.4 seconds.
 File lengths (MBytes):  RWF=   1919 Int=      0 D2E=      0 Chk=      4 Scr=      1
 Normal termination of Gaussian 16 at Mon May 11 17:15:19 2020.
