 Entering Gaussian System, Link 0=g16
 Input=M_Oh_4.gau
 Output=M_Oh_4.log
 Initial command:
 /apps/gaussian/g16c01/g16/l1.exe "/jobfs/149568994.gadi-pbs/Gau-1146609.inp" -scrdir="/jobfs/149568994.gadi-pbs/"
 Default is to use a total of  24 processors:
                               24 via shared-memory
                                1 via Linda
 Entering Link 1 = /apps/gaussian/g16c01/g16/l1.exe PID=   1146610.
  
 Copyright (c) 1988-2019, Gaussian, Inc.  All Rights Reserved.
  
 This is part of the Gaussian(R) 16 program.  It is based on
 the Gaussian(R) 09 system (copyright 2009, Gaussian, Inc.),
 the Gaussian(R) 03 system (copyright 2003, Gaussian, Inc.),
 the Gaussian(R) 98 system (copyright 1998, Gaussian, Inc.),
 the Gaussian(R) 94 system (copyright 1995, Gaussian, Inc.),
 the Gaussian 92(TM) system (copyright 1992, Gaussian, Inc.),
 the Gaussian 90(TM) system (copyright 1990, Gaussian, Inc.),
 the Gaussian 88(TM) system (copyright 1988, Gaussian, Inc.),
 the Gaussian 86(TM) system (copyright 1986, Carnegie Mellon
 University), and the Gaussian 82(TM) system (copyright 1983,
 Carnegie Mellon University). Gaussian is a federally registered
 trademark of Gaussian, Inc.
  
 This software contains proprietary and confidential information,
 including trade secrets, belonging to Gaussian, Inc.
  
 This software is provided under written license and may be
 used, copied, transmitted, or stored only in accord with that
 written license.
  
 The following legend is applicable only to US Government
 contracts under FAR:
  
                    RESTRICTED RIGHTS LEGEND
  
 Use, reproduction and disclosure by the US Government is
 subject to restrictions as set forth in subparagraphs (a)
 and (c) of the Commercial Computer Software - Restricted
 Rights clause in FAR 52.227-19.
  
 Gaussian, Inc.
 340 Quinnipiac St., Bldg. 40, Wallingford CT 06492
  
  
 ---------------------------------------------------------------
 Warning -- This program may not be used in any manner that
 competes with the business of Gaussian, Inc. or will provide
 assistance to any competitor of Gaussian, Inc.  The licensee
 of this program is prohibited from giving any competitor of
 Gaussian, Inc. access to this program.  By using this program,
 the user acknowledges that Gaussian, Inc. is engaged in the
 business of creating and licensing software in the field of
 computational chemistry and represents and warrants to the
 licensee that it is not a competitor of Gaussian, Inc. and that
 it will not use this program in any manner prohibited above.
 ---------------------------------------------------------------
  

 Cite this work as:
 Gaussian 16, Revision C.01,
 M. J. Frisch, G. W. Trucks, H. B. Schlegel, G. E. Scuseria, 
 M. A. Robb, J. R. Cheeseman, G. Scalmani, V. Barone, 
 G. A. Petersson, H. Nakatsuji, X. Li, M. Caricato, A. V. Marenich, 
 J. Bloino, B. G. Janesko, R. Gomperts, B. Mennucci, H. P. Hratchian, 
 J. V. Ortiz, A. F. Izmaylov, J. L. Sonnenberg, D. Williams-Young, 
 F. Ding, F. Lipparini, F. Egidi, J. Goings, B. Peng, A. Petrone, 
 T. Henderson, D. Ranasinghe, V. G. Zakrzewski, J. Gao, N. Rega, 
 G. Zheng, W. Liang, M. Hada, M. Ehara, K. Toyota, R. Fukuda, 
 J. Hasegawa, M. Ishida, T. Nakajima, Y. Honda, O. Kitao, H. Nakai, 
 T. Vreven, K. Throssell, J. A. Montgomery, Jr., J. E. Peralta, 
 F. Ogliaro, M. J. Bearpark, J. J. Heyd, E. N. Brothers, K. N. Kudin, 
 V. N. Staroverov, T. A. Keith, R. Kobayashi, J. Normand, 
 K. Raghavachari, A. P. Rendell, J. C. Burant, S. S. Iyengar, 
 J. Tomasi, M. Cossi, J. M. Millam, M. Klene, C. Adamo, R. Cammi, 
 J. W. Ochterski, R. L. Martin, K. Morokuma, O. Farkas, 
 J. B. Foresman, and D. J. Fox, Gaussian, Inc., Wallingford CT, 2019.
 
 ******************************************
 Gaussian 16:  ES64L-G16RevC.01  3-Jul-2019
                12-Sep-2025 
 ******************************************
 %chk=M_Oh_4.chk
 Default route: Maxdisk=0MB
 ----------------------------------------------------------------
 # opt(maxcycles=300) freq scf(maxcycle=300,xqc) UwB97XD/Def2SVPP
 ----------------------------------------------------------------
 1/6=300,18=20,19=15,26=3,38=1/1,3;
 2/9=110,12=2,17=6,18=5,40=1/2;
 3/5=43,7=202,11=2,25=1,30=1,71=1,74=-58,116=2/1,2,3;
 4//1;
 5/5=2,7=300,8=3,13=1,38=5/2,8;
 6/7=2,8=2,9=2,10=2,28=1/1;
 7//1,2,3,16;
 1/6=300,18=20,19=15,26=3/3(2);
 2/9=110/2;
 99//99;
 2/9=110/2;
 3/5=43,7=202,11=2,25=1,30=1,71=1,74=-58,116=2/1,2,3;
 4/5=5,16=3,69=1/1;
 5/5=2,7=300,8=3,13=1,38=5/2,8;
 7//1,2,3,16;
 1/6=300,18=20,19=15,26=3/3(-5);
 2/9=110/2;
 6/7=2,8=2,9=2,10=2,19=2,28=1/1;
 99/9=1/99;
 ---------------------------------------------------------
 Title: Geometrical optimization and frequency calculation
 ---------------------------------------------------------
 Symbolic Z-matrix:
 Charge =  0 Multiplicity = 1
 6                    -0.7884    0.7884   -0.7884 
 6                    -0.7884   -0.7884   -0.7884 
 6                     0.7884   -0.7884   -0.7884 
 6                     0.7884    0.7884   -0.7884 
 6                    -0.7884    0.7884    0.7884 
 6                     0.7884    0.7884    0.7884 
 6                     0.7884   -0.7884    0.7884 
 6                    -0.7884   -0.7884    0.7884 
 1                    -1.4152    1.4152   -1.4152 
 1                    -1.4152   -1.4152   -1.4152 
 1                     1.4152   -1.4152   -1.4152 
 1                     1.4152    1.4152   -1.4152 
 1                    -1.4152    1.4152    1.4152 
 1                     1.4152    1.4152    1.4152 
 1                     1.4152   -1.4152    1.4152 
 1                    -1.4152   -1.4152    1.4152 
 

 GradGradGradGradGradGradGradGradGradGradGradGradGradGradGradGradGradGrad
 Berny optimization.
 Initialization pass.
                           ----------------------------
                           !    Initial Parameters    !
                           ! (Angstroms and Degrees)  !
 --------------------------                            --------------------------
 ! Name  Definition              Value          Derivative Info.                !
 --------------------------------------------------------------------------------
 ! R1    R(1,2)                  1.5768         estimate D2E/DX2                !
 ! R2    R(1,4)                  1.5768         estimate D2E/DX2                !
 ! R3    R(1,5)                  1.5768         estimate D2E/DX2                !
 ! R4    R(1,9)                  1.0856         estimate D2E/DX2                !
 ! R5    R(2,3)                  1.5768         estimate D2E/DX2                !
 ! R6    R(2,8)                  1.5768         estimate D2E/DX2                !
 ! R7    R(2,10)                 1.0856         estimate D2E/DX2                !
 ! R8    R(3,4)                  1.5768         estimate D2E/DX2                !
 ! R9    R(3,7)                  1.5768         estimate D2E/DX2                !
 ! R10   R(3,11)                 1.0856         estimate D2E/DX2                !
 ! R11   R(4,6)                  1.5768         estimate D2E/DX2                !
 ! R12   R(4,12)                 1.0856         estimate D2E/DX2                !
 ! R13   R(5,6)                  1.5768         estimate D2E/DX2                !
 ! R14   R(5,8)                  1.5768         estimate D2E/DX2                !
 ! R15   R(5,13)                 1.0856         estimate D2E/DX2                !
 ! R16   R(6,7)                  1.5768         estimate D2E/DX2                !
 ! R17   R(6,14)                 1.0856         estimate D2E/DX2                !
 ! R18   R(7,8)                  1.5768         estimate D2E/DX2                !
 ! R19   R(7,15)                 1.0856         estimate D2E/DX2                !
 ! R20   R(8,16)                 1.0856         estimate D2E/DX2                !
 ! A1    A(2,1,4)               90.0            estimate D2E/DX2                !
 ! A2    A(2,1,5)               90.0            estimate D2E/DX2                !
 ! A3    A(2,1,9)              125.2644         estimate D2E/DX2                !
 ! A4    A(4,1,5)               90.0            estimate D2E/DX2                !
 ! A5    A(4,1,9)              125.2644         estimate D2E/DX2                !
 ! A6    A(5,1,9)              125.2644         estimate D2E/DX2                !
 ! A7    A(1,2,3)               90.0            estimate D2E/DX2                !
 ! A8    A(1,2,8)               90.0            estimate D2E/DX2                !
 ! A9    A(1,2,10)             125.2644         estimate D2E/DX2                !
 ! A10   A(3,2,8)               90.0            estimate D2E/DX2                !
 ! A11   A(3,2,10)             125.2644         estimate D2E/DX2                !
 ! A12   A(8,2,10)             125.2644         estimate D2E/DX2                !
 ! A13   A(2,3,4)               90.0            estimate D2E/DX2                !
 ! A14   A(2,3,7)               90.0            estimate D2E/DX2                !
 ! A15   A(2,3,11)             125.2644         estimate D2E/DX2                !
 ! A16   A(4,3,7)               90.0            estimate D2E/DX2                !
 ! A17   A(4,3,11)             125.2644         estimate D2E/DX2                !
 ! A18   A(7,3,11)             125.2644         estimate D2E/DX2                !
 ! A19   A(1,4,3)               90.0            estimate D2E/DX2                !
 ! A20   A(1,4,6)               90.0            estimate D2E/DX2                !
 ! A21   A(1,4,12)             125.2644         estimate D2E/DX2                !
 ! A22   A(3,4,6)               90.0            estimate D2E/DX2                !
 ! A23   A(3,4,12)             125.2644         estimate D2E/DX2                !
 ! A24   A(6,4,12)             125.2644         estimate D2E/DX2                !
 ! A25   A(1,5,6)               90.0            estimate D2E/DX2                !
 ! A26   A(1,5,8)               90.0            estimate D2E/DX2                !
 ! A27   A(1,5,13)             125.2644         estimate D2E/DX2                !
 ! A28   A(6,5,8)               90.0            estimate D2E/DX2                !
 ! A29   A(6,5,13)             125.2644         estimate D2E/DX2                !
 ! A30   A(8,5,13)             125.2644         estimate D2E/DX2                !
 ! A31   A(4,6,5)               90.0            estimate D2E/DX2                !
 ! A32   A(4,6,7)               90.0            estimate D2E/DX2                !
 ! A33   A(4,6,14)             125.2644         estimate D2E/DX2                !
 ! A34   A(5,6,7)               90.0            estimate D2E/DX2                !
 ! A35   A(5,6,14)             125.2644         estimate D2E/DX2                !
 ! A36   A(7,6,14)             125.2644         estimate D2E/DX2                !
 ! A37   A(3,7,6)               90.0            estimate D2E/DX2                !
 ! A38   A(3,7,8)               90.0            estimate D2E/DX2                !
 ! A39   A(3,7,15)             125.2644         estimate D2E/DX2                !
 ! A40   A(6,7,8)               90.0            estimate D2E/DX2                !
 ! A41   A(6,7,15)             125.2644         estimate D2E/DX2                !
 ! A42   A(8,7,15)             125.2644         estimate D2E/DX2                !
 ! A43   A(2,8,5)               90.0            estimate D2E/DX2                !
 ! A44   A(2,8,7)               90.0            estimate D2E/DX2                !
 ! A45   A(2,8,16)             125.2644         estimate D2E/DX2                !
 ! A46   A(5,8,7)               90.0            estimate D2E/DX2                !
 ! A47   A(5,8,16)             125.2644         estimate D2E/DX2                !
 ! A48   A(7,8,16)             125.2644         estimate D2E/DX2                !
 ! D1    D(4,1,2,3)              0.0            estimate D2E/DX2                !
 ! D2    D(4,1,2,8)             90.0            estimate D2E/DX2                !
 ! D3    D(4,1,2,10)          -135.0            estimate D2E/DX2                !
 ! D4    D(5,1,2,3)            -90.0            estimate D2E/DX2                !
 ! D5    D(5,1,2,8)              0.0            estimate D2E/DX2                !
 ! D6    D(5,1,2,10)           135.0            estimate D2E/DX2                !
 ! D7    D(9,1,2,3)            135.0            estimate D2E/DX2                !
 ! D8    D(9,1,2,8)           -135.0            estimate D2E/DX2                !
 ! D9    D(9,1,2,10)             0.0            estimate D2E/DX2                !
 ! D10   D(2,1,4,3)              0.0            estimate D2E/DX2                !
 ! D11   D(2,1,4,6)            -90.0            estimate D2E/DX2                !
 ! D12   D(2,1,4,12)           135.0            estimate D2E/DX2                !
 ! D13   D(5,1,4,3)             90.0            estimate D2E/DX2                !
 ! D14   D(5,1,4,6)              0.0            estimate D2E/DX2                !
 ! D15   D(5,1,4,12)          -135.0            estimate D2E/DX2                !
 ! D16   D(9,1,4,3)           -135.0            estimate D2E/DX2                !
 ! D17   D(9,1,4,6)            135.0            estimate D2E/DX2                !
 ! D18   D(9,1,4,12)             0.0            estimate D2E/DX2                !
 ! D19   D(2,1,5,6)             90.0            estimate D2E/DX2                !
 ! D20   D(2,1,5,8)              0.0            estimate D2E/DX2                !
 ! D21   D(2,1,5,13)          -135.0            estimate D2E/DX2                !
 ! D22   D(4,1,5,6)              0.0            estimate D2E/DX2                !
 ! D23   D(4,1,5,8)            -90.0            estimate D2E/DX2                !
 ! D24   D(4,1,5,13)           135.0            estimate D2E/DX2                !
 ! D25   D(9,1,5,6)           -135.0            estimate D2E/DX2                !
 ! D26   D(9,1,5,8)            135.0            estimate D2E/DX2                !
 ! D27   D(9,1,5,13)             0.0            estimate D2E/DX2                !
 ! D28   D(1,2,3,4)              0.0            estimate D2E/DX2                !
 ! D29   D(1,2,3,7)             90.0            estimate D2E/DX2                !
 ! D30   D(1,2,3,11)          -135.0            estimate D2E/DX2                !
 ! D31   D(8,2,3,4)            -90.0            estimate D2E/DX2                !
 ! D32   D(8,2,3,7)              0.0            estimate D2E/DX2                !
 ! D33   D(8,2,3,11)           135.0            estimate D2E/DX2                !
 ! D34   D(10,2,3,4)           135.0            estimate D2E/DX2                !
 ! D35   D(10,2,3,7)          -135.0            estimate D2E/DX2                !
 ! D36   D(10,2,3,11)            0.0            estimate D2E/DX2                !
 ! D37   D(1,2,8,5)              0.0            estimate D2E/DX2                !
 ! D38   D(1,2,8,7)            -90.0            estimate D2E/DX2                !
 ! D39   D(1,2,8,16)           135.0            estimate D2E/DX2                !
 ! D40   D(3,2,8,5)             90.0            estimate D2E/DX2                !
 ! D41   D(3,2,8,7)              0.0            estimate D2E/DX2                !
 ! D42   D(3,2,8,16)          -135.0            estimate D2E/DX2                !
 ! D43   D(10,2,8,5)          -135.0            estimate D2E/DX2                !
 ! D44   D(10,2,8,7)           135.0            estimate D2E/DX2                !
 ! D45   D(10,2,8,16)            0.0            estimate D2E/DX2                !
 ! D46   D(2,3,4,1)              0.0            estimate D2E/DX2                !
 ! D47   D(2,3,4,6)             90.0            estimate D2E/DX2                !
 ! D48   D(2,3,4,12)          -135.0            estimate D2E/DX2                !
 ! D49   D(7,3,4,1)            -90.0            estimate D2E/DX2                !
 ! D50   D(7,3,4,6)              0.0            estimate D2E/DX2                !
 ! D51   D(7,3,4,12)           135.0            estimate D2E/DX2                !
 ! D52   D(11,3,4,1)           135.0            estimate D2E/DX2                !
 ! D53   D(11,3,4,6)          -135.0            estimate D2E/DX2                !
 ! D54   D(11,3,4,12)            0.0            estimate D2E/DX2                !
 ! D55   D(2,3,7,6)            -90.0            estimate D2E/DX2                !
 ! D56   D(2,3,7,8)              0.0            estimate D2E/DX2                !
 ! D57   D(2,3,7,15)           135.0            estimate D2E/DX2                !
 ! D58   D(4,3,7,6)              0.0            estimate D2E/DX2                !
 ! D59   D(4,3,7,8)             90.0            estimate D2E/DX2                !
 ! D60   D(4,3,7,15)          -135.0            estimate D2E/DX2                !
 ! D61   D(11,3,7,6)           135.0            estimate D2E/DX2                !
 ! D62   D(11,3,7,8)          -135.0            estimate D2E/DX2                !
 ! D63   D(11,3,7,15)            0.0            estimate D2E/DX2                !
 ! D64   D(1,4,6,5)              0.0            estimate D2E/DX2                !
 ! D65   D(1,4,6,7)             90.0            estimate D2E/DX2                !
 ! D66   D(1,4,6,14)          -135.0            estimate D2E/DX2                !
 ! D67   D(3,4,6,5)            -90.0            estimate D2E/DX2                !
 ! D68   D(3,4,6,7)              0.0            estimate D2E/DX2                !
 ! D69   D(3,4,6,14)           135.0            estimate D2E/DX2                !
 ! D70   D(12,4,6,5)           135.0            estimate D2E/DX2                !
 ! D71   D(12,4,6,7)          -135.0            estimate D2E/DX2                !
 ! D72   D(12,4,6,14)            0.0            estimate D2E/DX2                !
 ! D73   D(1,5,6,4)              0.0            estimate D2E/DX2                !
 ! D74   D(1,5,6,7)            -90.0            estimate D2E/DX2                !
 ! D75   D(1,5,6,14)           135.0            estimate D2E/DX2                !
 ! D76   D(8,5,6,4)             90.0            estimate D2E/DX2                !
 ! D77   D(8,5,6,7)              0.0            estimate D2E/DX2                !
 ! D78   D(8,5,6,14)          -135.0            estimate D2E/DX2                !
 ! D79   D(13,5,6,4)          -135.0            estimate D2E/DX2                !
 ! D80   D(13,5,6,7)           135.0            estimate D2E/DX2                !
 ! D81   D(13,5,6,14)            0.0            estimate D2E/DX2                !
 ! D82   D(1,5,8,2)              0.0            estimate D2E/DX2                !
 ! D83   D(1,5,8,7)             90.0            estimate D2E/DX2                !
 ! D84   D(1,5,8,16)          -135.0            estimate D2E/DX2                !
 ! D85   D(6,5,8,2)            -90.0            estimate D2E/DX2                !
 ! D86   D(6,5,8,7)              0.0            estimate D2E/DX2                !
 ! D87   D(6,5,8,16)           135.0            estimate D2E/DX2                !
 ! D88   D(13,5,8,2)           135.0            estimate D2E/DX2                !
 ! D89   D(13,5,8,7)          -135.0            estimate D2E/DX2                !
 ! D90   D(13,5,8,16)            0.0            estimate D2E/DX2                !
 ! D91   D(4,6,7,3)              0.0            estimate D2E/DX2                !
 ! D92   D(4,6,7,8)            -90.0            estimate D2E/DX2                !
 ! D93   D(4,6,7,15)           135.0            estimate D2E/DX2                !
 ! D94   D(5,6,7,3)             90.0            estimate D2E/DX2                !
 ! D95   D(5,6,7,8)              0.0            estimate D2E/DX2                !
 ! D96   D(5,6,7,15)          -135.0            estimate D2E/DX2                !
 ! D97   D(14,6,7,3)          -135.0            estimate D2E/DX2                !
 ! D98   D(14,6,7,8)           135.0            estimate D2E/DX2                !
 ! D99   D(14,6,7,15)            0.0            estimate D2E/DX2                !
 ! D100  D(3,7,8,2)              0.0            estimate D2E/DX2                !
 ! D101  D(3,7,8,5)            -90.0            estimate D2E/DX2                !
 ! D102  D(3,7,8,16)           135.0            estimate D2E/DX2                !
 ! D103  D(6,7,8,2)             90.0            estimate D2E/DX2                !
 ! D104  D(6,7,8,5)              0.0            estimate D2E/DX2                !
 ! D105  D(6,7,8,16)          -135.0            estimate D2E/DX2                !
 ! D106  D(15,7,8,2)          -135.0            estimate D2E/DX2                !
 ! D107  D(15,7,8,5)           135.0            estimate D2E/DX2                !
 ! D108  D(15,7,8,16)            0.0            estimate D2E/DX2                !
 --------------------------------------------------------------------------------
 Trust Radius=3.00D-01 FncErr=1.00D-07 GrdErr=1.00D-06 EigMax=2.50D+02 EigMin=1.00D-04
 Number of steps in this run=    100 maximum allowed number of steps=    100.
 GradGradGradGradGradGradGradGradGradGradGradGradGradGradGradGradGradGrad

                          Input orientation:                          
 ---------------------------------------------------------------------
 Center     Atomic      Atomic             Coordinates (Angstroms)
 Number     Number       Type             X           Y           Z
 ---------------------------------------------------------------------
      1          6           0       -0.788400    0.788400   -0.788400
      2          6           0       -0.788400   -0.788400   -0.788400
      3          6           0        0.788400   -0.788400   -0.788400
      4          6           0        0.788400    0.788400   -0.788400
      5          6           0       -0.788400    0.788400    0.788400
      6          6           0        0.788400    0.788400    0.788400
      7          6           0        0.788400   -0.788400    0.788400
      8          6           0       -0.788400   -0.788400    0.788400
      9          1           0       -1.415200    1.415200   -1.415200
     10          1           0       -1.415200   -1.415200   -1.415200
     11          1           0        1.415200   -1.415200   -1.415200
     12          1           0        1.415200    1.415200   -1.415200
     13          1           0       -1.415200    1.415200    1.415200
     14          1           0        1.415200    1.415200    1.415200
     15          1           0        1.415200   -1.415200    1.415200
     16          1           0       -1.415200   -1.415200    1.415200
 ---------------------------------------------------------------------
                    Distance matrix (angstroms):
                    1          2          3          4          5
     1  C    0.000000
     2  C    1.576800   0.000000
     3  C    2.229932   1.576800   0.000000
     4  C    1.576800   2.229932   1.576800   0.000000
     5  C    1.576800   2.229932   2.731098   2.229932   0.000000
     6  C    2.229932   2.731098   2.229932   1.576800   1.576800
     7  C    2.731098   2.229932   1.576800   2.229932   2.229932
     8  C    2.229932   1.576800   2.229932   2.731098   1.576800
     9  H    1.085649   2.375207   3.178771   2.375207   2.375207
    10  H    2.375207   1.085649   2.375207   3.178771   3.178771
    11  H    3.178771   2.375207   1.085649   2.375207   3.816747
    12  H    2.375207   3.178771   2.375207   1.085649   3.178771
    13  H    2.375207   3.178771   3.816747   3.178771   1.085649
    14  H    3.178771   3.816747   3.178771   2.375207   2.375207
    15  H    3.816747   3.178771   2.375207   3.178771   3.178771
    16  H    3.178771   2.375207   3.178771   3.816747   2.375207
                    6          7          8          9         10
     6  C    0.000000
     7  C    1.576800   0.000000
     8  C    2.229932   1.576800   0.000000
     9  H    3.178771   3.816747   3.178771   0.000000
    10  H    3.816747   3.178771   2.375207   2.830400   0.000000
    11  H    3.178771   2.375207   3.178771   4.002790   2.830400
    12  H    2.375207   3.178771   3.816747   2.830400   4.002790
    13  H    2.375207   3.178771   2.375207   2.830400   4.002790
    14  H    1.085649   2.375207   3.178771   4.002790   4.902397
    15  H    2.375207   1.085649   2.375207   4.902397   4.002790
    16  H    3.178771   2.375207   1.085649   4.002790   2.830400
                   11         12         13         14         15
    11  H    0.000000
    12  H    2.830400   0.000000
    13  H    4.902397   4.002790   0.000000
    14  H    4.002790   2.830400   2.830400   0.000000
    15  H    2.830400   4.002790   4.002790   2.830400   0.000000
    16  H    4.002790   4.902397   2.830400   4.002790   2.830400
                   16
    16  H    0.000000
 Stoichiometry    C8H8
 Framework group  OH[4C3(HC.CH)]
 Deg. of freedom     2
 Full point group                 OH      NOp  48
 Largest Abelian subgroup         D2H     NOp   8
 Largest concise Abelian subgroup D2H     NOp   8
                         Standard orientation:                         
 ---------------------------------------------------------------------
 Center     Atomic      Atomic             Coordinates (Angstroms)
 Number     Number       Type             X           Y           Z
 ---------------------------------------------------------------------
      1          6           0        0.788400    0.788400    0.788400
      2          6           0       -0.788400    0.788400    0.788400
      3          6           0       -0.788400    0.788400   -0.788400
      4          6           0        0.788400    0.788400   -0.788400
      5          6           0        0.788400   -0.788400    0.788400
      6          6           0        0.788400   -0.788400   -0.788400
      7          6           0       -0.788400   -0.788400   -0.788400
      8          6           0       -0.788400   -0.788400    0.788400
      9          1           0        1.415200    1.415200    1.415200
     10          1           0       -1.415200    1.415200    1.415200
     11          1           0       -1.415200    1.415200   -1.415200
     12          1           0        1.415200    1.415200   -1.415200
     13          1           0        1.415200   -1.415200    1.415200
     14          1           0        1.415200   -1.415200   -1.415200
     15          1           0       -1.415200   -1.415200   -1.415200
     16          1           0       -1.415200   -1.415200    1.415200
 ---------------------------------------------------------------------
 Rotational constants (GHZ):           3.3328053           3.3328053           3.3328053
 Standard basis: def2SVPP (5D, 7F)
 There are    17 symmetry adapted cartesian basis functions of AG  symmetry.
 There are    17 symmetry adapted cartesian basis functions of B1G symmetry.
 There are    17 symmetry adapted cartesian basis functions of B2G symmetry.
 There are    17 symmetry adapted cartesian basis functions of B3G symmetry.
 There are    17 symmetry adapted cartesian basis functions of AU  symmetry.
 There are    17 symmetry adapted cartesian basis functions of B1U symmetry.
 There are    17 symmetry adapted cartesian basis functions of B2U symmetry.
 There are    17 symmetry adapted cartesian basis functions of B3U symmetry.
 There are    16 symmetry adapted basis functions of AG  symmetry.
 There are    16 symmetry adapted basis functions of B1G symmetry.
 There are    16 symmetry adapted basis functions of B2G symmetry.
 There are    16 symmetry adapted basis functions of B3G symmetry.
 There are    16 symmetry adapted basis functions of AU  symmetry.
 There are    16 symmetry adapted basis functions of B1U symmetry.
 There are    16 symmetry adapted basis functions of B2U symmetry.
 There are    16 symmetry adapted basis functions of B3U symmetry.
   128 basis functions,   232 primitive gaussians,   136 cartesian basis functions
    28 alpha electrons       28 beta electrons
       nuclear repulsion energy       365.7652761541 Hartrees.
 NAtoms=   16 NActive=   16 NUniq=    2 SFac= 4.00D+00 NAtFMM=   60 NAOKFM=F Big=F
 Integral buffers will be    131072 words long.
 Raffenetti 2 integral format.
 Two-electron integral symmetry is turned on.
 Nuclear repulsion after empirical dispersion term =      365.7564787853 Hartrees.
 One-electron integrals computed using PRISM.
  48 Symmetry operations used in ECPInt.
 ECPInt:  NShTT=    2080 NPrTT=    8384 LenC2=    2081 LenP2D=    6976.
 LDataN:  DoStor=T MaxTD1= 4 Len=   56
 NBasis=   128 RedAO= T EigKep=  2.61D-05  NBF=    16    16    16    16    16    16    16    16
 NBsUse=   128 1.00D-06 EigRej= -1.00D+00 NBFU=    16    16    16    16    16    16    16    16
 ExpMin= 1.22D-01 ExpMax= 1.24D+03 ExpMxC= 1.86D+02 IAcc=3 IRadAn=         5 AccDes= 0.00D+00
 Harris functional with IExCor= 4639 and IRadAn=       5 diagonalized for initial guess.
 HarFok:  IExCor= 4639 AccDes= 0.00D+00 IRadAn=         5 IDoV= 1 UseB2=F ITyADJ=14
 ICtDFT=  3500011 ScaDFX=  1.000000  1.000000  1.000000  1.000000
 FoFCou: FMM=F IPFlag=           0 FMFlag=      100000 FMFlg1=           0
         NFxFlg=           0 DoJE=T BraDBF=F KetDBF=T FulRan=T
         wScrn=  0.000000 ICntrl=       500 IOpCl=  0 I1Cent=   200000004 NGrid=           0
         NMat0=    1 NMatS0=      1 NMatT0=    0 NMatD0=    1 NMtDS0=    0 NMtDT0=    0
 Petite list used in FoFCou.
 Initial guess orbital symmetries:
 Alpha Orbitals:
       Occupied  (A2U) (T2G) (T2G) (T2G) (T1U) (T1U) (T1U) (A1G)
                 (A1G) (T1U) (T1U) (T1U) (T2G) (T2G) (T2G) (A1G)
                 (A2U) (EG) (EG) (T1U) (T1U) (T1U) (T2U) (T2U)
                 (T2U) (T2G) (T2G) (T2G)
       Virtual   (T1U) (T1U) (T1U) (A1G) (T1U) (T1U) (T1U) (T2G)
                 (T2G) (T2G) (T1G) (T1G) (T1G) (A2U) (T2G) (T2G)
                 (T2G) (EU) (EU) (A1G) (EG) (EG) (T1U) (T1U) (T1U)
                 (T2U) (T2U) (T2U) (A2U) (T2G) (T2G) (T2G) (T1U)
                 (T1U) (T1U) (T2G) (T2G) (T2G) (T1G) (T1G) (T1G)
                 (A1G) (T1U) (T1U) (T1U) (A2U) (EU) (EU) (T2G)
                 (T2G) (T2G) (EG) (EG) (T1U) (T1U) (T1U) (A1G)
                 (A2U) (EG) (EG) (A2U) (T2U) (T2U) (T2U) (T2G)
                 (T2G) (T2G) (T1U) (T1U) (T1U) (T1G) (T1G) (T1G)
                 (T2U) (T2U) (T2U) (A1G) (T2G) (T2G) (T2G) (T1U)
                 (T1U) (T1U) (T2G) (T2G) (T2G) (T1U) (T1U) (T1U)
                 (EU) (EU) (T2G) (T2G) (T2G) (T1G) (T1G) (T1G)
                 (EU) (EU) (A2U)
 Beta  Orbitals:
       Occupied  (A2U) (T2G) (T2G) (T2G) (T1U) (T1U) (T1U) (A1G)
                 (A1G) (T1U) (T1U) (T1U) (T2G) (T2G) (T2G) (A1G)
                 (A2U) (EG) (EG) (T1U) (T1U) (T1U) (T2U) (T2U)
                 (T2U) (T2G) (T2G) (T2G)
       Virtual   (T1U) (T1U) (T1U) (A1G) (T1U) (T1U) (T1U) (T2G)
                 (T2G) (T2G) (T1G) (T1G) (T1G) (A2U) (T2G) (T2G)
                 (T2G) (EU) (EU) (A1G) (EG) (EG) (T1U) (T1U) (T1U)
                 (T2U) (T2U) (T2U) (A2U) (T2G) (T2G) (T2G) (T1U)
                 (T1U) (T1U) (T2G) (T2G) (T2G) (T1G) (T1G) (T1G)
                 (A1G) (T1U) (T1U) (T1U) (A2U) (EU) (EU) (T2G)
                 (T2G) (T2G) (EG) (EG) (T1U) (T1U) (T1U) (A1G)
                 (A2U) (EG) (EG) (A2U) (T2U) (T2U) (T2U) (T2G)
                 (T2G) (T2G) (T1U) (T1U) (T1U) (T1G) (T1G) (T1G)
                 (T2U) (T2U) (T2U) (A1G) (T2G) (T2G) (T2G) (T1U)
                 (T1U) (T1U) (T2G) (T2G) (T2G) (T1U) (T1U) (T1U)
                 (EU) (EU) (T2G) (T2G) (T2G) (T1G) (T1G) (T1G)
                 (EU) (EU) (A2U)
 The electronic state of the initial guess is 1-A1G.
 Initial guess <Sx>= 0.0000 <Sy>= 0.0000 <Sz>= 0.0000 <S**2>= 0.0000 S= 0.0000
 Keep R1 and R2 ints in memory in symmetry-blocked form, NReq=92406980.
 Requested convergence on RMS density matrix=1.00D-08 within 128 cycles.
 Requested convergence on MAX density matrix=1.00D-06.
 Requested convergence on             energy=1.00D-06.
 No special actions if energy rises.
 Integral accuracy reduced to 1.0D-05 until final iterations.
 Initial convergence to 1.0D-05 achieved.  Increase integral accuracy.
 SCF Done:  E(UwB97XD) =  -309.145217343     A.U. after   13 cycles
            NFock= 13  Conv=0.14D-08     -V/T= 2.0117
 <Sx>= 0.0000 <Sy>= 0.0000 <Sz>= 0.0000 <S**2>= 0.0000 S= 0.0000
 <L.S>= 0.000000000000E+00
 Annihilation of the first spin contaminant:
 S**2 before annihilation     0.0000,   after    -0.0000
 QCSCF skips out because SCF is already converged.

 **********************************************************************

            Population analysis using the SCF Density.

 **********************************************************************

 Orbital symmetries:
 Alpha Orbitals:
       Occupied  (A1G) (T1U) (T1U) (T1U) (T2G) (T2G) (T2G) (A2U)
                 (A1G) (T1U) (T1U) (T1U) (T2G) (T2G) (T2G) (A1G)
                 (A2U) (EG) (EG) (T1U) (T1U) (T1U) (T2U) (T2U)
                 (T2U) (T2G) (T2G) (T2G)
       Virtual   (A1G) (T1U) (T1U) (T1U) (T1U) (T1U) (T1U) (T2G)
                 (T2G) (T2G) (A2U) (T1G) (T1G) (T1G) (T2G) (T2G)
                 (T2G) (EU) (EU) (A1G) (EG) (EG) (T1U) (T1U) (T1U)
                 (A2U) (T2U) (T2U) (T2U) (T2G) (T2G) (T2G) (T1U)
                 (T1U) (T1U) (T2G) (T2G) (T2G) (T1G) (T1G) (T1G)
                 (A1G) (T1U) (T1U) (T1U) (EU) (EU) (A2U) (T2G)
                 (T2G) (T2G) (EG) (EG) (T1U) (T1U) (T1U) (A1G)
                 (A2U) (A2U) (EG) (EG) (T2U) (T2U) (T2U) (T2G)
                 (T2G) (T2G) (T1U) (T1U) (T1U) (T1G) (T1G) (T1G)
                 (T2U) (T2U) (T2U) (A1G) (T2G) (T2G) (T2G) (T1U)
                 (T1U) (T1U) (T2G) (T2G) (T2G) (T1U) (T1U) (T1U)
                 (EU) (EU) (T2G) (T2G) (T2G) (T1G) (T1G) (T1G)
                 (EU) (EU) (A2U)
 Beta  Orbitals:
       Occupied  (A1G) (T1U) (T1U) (T1U) (T2G) (T2G) (T2G) (A2U)
                 (A1G) (T1U) (T1U) (T1U) (T2G) (T2G) (T2G) (A1G)
                 (A2U) (EG) (EG) (T1U) (T1U) (T1U) (T2U) (T2U)
                 (T2U) (T2G) (T2G) (T2G)
       Virtual   (A1G) (T1U) (T1U) (T1U) (T1U) (T1U) (T1U) (T2G)
                 (T2G) (T2G) (A2U) (T1G) (T1G) (T1G) (T2G) (T2G)
                 (T2G) (EU) (EU) (A1G) (EG) (EG) (T1U) (T1U) (T1U)
                 (A2U) (T2U) (T2U) (T2U) (T2G) (T2G) (T2G) (T1U)
                 (T1U) (T1U) (T2G) (T2G) (T2G) (T1G) (T1G) (T1G)
                 (A1G) (T1U) (T1U) (T1U) (EU) (EU) (A2U) (T2G)
                 (T2G) (T2G) (EG) (EG) (T1U) (T1U) (T1U) (A1G)
                 (A2U) (A2U) (EG) (EG) (T2U) (T2U) (T2U) (T2G)
                 (T2G) (T2G) (T1U) (T1U) (T1U) (T1G) (T1G) (T1G)
                 (T2U) (T2U) (T2U) (A1G) (T2G) (T2G) (T2G) (T1U)
                 (T1U) (T1U) (T2G) (T2G) (T2G) (T1U) (T1U) (T1U)
                 (EU) (EU) (T2G) (T2G) (T2G) (T1G) (T1G) (T1G)
                 (EU) (EU) (A2U)
 The electronic state is 1-A1G.
 Alpha  occ. eigenvalues --  -10.29417 -10.29414 -10.29414 -10.29414 -10.29414
 Alpha  occ. eigenvalues --  -10.29414 -10.29414 -10.29413  -1.04097  -0.81609
 Alpha  occ. eigenvalues --   -0.81609  -0.81609  -0.64742  -0.64742  -0.64742
 Alpha  occ. eigenvalues --   -0.62203  -0.55161  -0.51777  -0.51777  -0.51122
 Alpha  occ. eigenvalues --   -0.51122  -0.51122  -0.35532  -0.35532  -0.35532
 Alpha  occ. eigenvalues --   -0.34222  -0.34222  -0.34222
 Alpha virt. eigenvalues --    0.14186   0.14219   0.14219   0.14219   0.20657
 Alpha virt. eigenvalues --    0.20657   0.20657   0.22130   0.22130   0.22130
 Alpha virt. eigenvalues --    0.24019   0.26336   0.26336   0.26336   0.37811
 Alpha virt. eigenvalues --    0.37811   0.37811   0.39932   0.39932   0.41393
 Alpha virt. eigenvalues --    0.54075   0.54075   0.56999   0.56999   0.56999
 Alpha virt. eigenvalues --    0.58890   0.58957   0.58957   0.58957   0.67471
 Alpha virt. eigenvalues --    0.67471   0.67471   0.71491   0.71491   0.71491
 Alpha virt. eigenvalues --    0.75702   0.75702   0.75702   0.77127   0.77127
 Alpha virt. eigenvalues --    0.77127   0.77353   0.81260   0.81260   0.81260
 Alpha virt. eigenvalues --    0.83579   0.83579   0.85183   1.01114   1.01114
 Alpha virt. eigenvalues --    1.01114   1.18599   1.18599   1.21096   1.21096
 Alpha virt. eigenvalues --    1.21096   1.23067   1.25902   1.71297   1.71828
 Alpha virt. eigenvalues --    1.71828   1.76076   1.76076   1.76076   1.81597
 Alpha virt. eigenvalues --    1.81597   1.81597   1.86798   1.86798   1.86798
 Alpha virt. eigenvalues --    1.97049   1.97049   1.97049   1.97582   1.97582
 Alpha virt. eigenvalues --    1.97582   2.06883   2.19798   2.19798   2.19798
 Alpha virt. eigenvalues --    2.20039   2.20039   2.20039   2.34103   2.34103
 Alpha virt. eigenvalues --    2.34103   2.46403   2.46403   2.46403   2.61861
 Alpha virt. eigenvalues --    2.61861   2.62592   2.62592   2.62592   2.84912
 Alpha virt. eigenvalues --    2.84912   2.84912   2.91261   2.91261   2.98968
  Beta  occ. eigenvalues --  -10.29417 -10.29414 -10.29414 -10.29414 -10.29414
  Beta  occ. eigenvalues --  -10.29414 -10.29414 -10.29413  -1.04097  -0.81609
  Beta  occ. eigenvalues --   -0.81609  -0.81609  -0.64742  -0.64742  -0.64742
  Beta  occ. eigenvalues --   -0.62203  -0.55161  -0.51777  -0.51777  -0.51122
  Beta  occ. eigenvalues --   -0.51122  -0.51122  -0.35532  -0.35532  -0.35532
  Beta  occ. eigenvalues --   -0.34222  -0.34222  -0.34222
  Beta virt. eigenvalues --    0.14186   0.14219   0.14219   0.14219   0.20657
  Beta virt. eigenvalues --    0.20657   0.20657   0.22130   0.22130   0.22130
  Beta virt. eigenvalues --    0.24019   0.26336   0.26336   0.26336   0.37811
  Beta virt. eigenvalues --    0.37811   0.37811   0.39932   0.39932   0.41393
  Beta virt. eigenvalues --    0.54075   0.54075   0.56999   0.56999   0.56999
  Beta virt. eigenvalues --    0.58890   0.58957   0.58957   0.58957   0.67471
  Beta virt. eigenvalues --    0.67471   0.67471   0.71491   0.71491   0.71491
  Beta virt. eigenvalues --    0.75702   0.75702   0.75702   0.77127   0.77127
  Beta virt. eigenvalues --    0.77127   0.77353   0.81260   0.81260   0.81260
  Beta virt. eigenvalues --    0.83579   0.83579   0.85183   1.01114   1.01114
  Beta virt. eigenvalues --    1.01114   1.18599   1.18599   1.21096   1.21096
  Beta virt. eigenvalues --    1.21096   1.23067   1.25902   1.71297   1.71828
  Beta virt. eigenvalues --    1.71828   1.76076   1.76076   1.76076   1.81597
  Beta virt. eigenvalues --    1.81597   1.81597   1.86798   1.86798   1.86798
  Beta virt. eigenvalues --    1.97049   1.97049   1.97049   1.97582   1.97582
  Beta virt. eigenvalues --    1.97582   2.06883   2.19798   2.19798   2.19798
  Beta virt. eigenvalues --    2.20039   2.20039   2.20039   2.34103   2.34103
  Beta virt. eigenvalues --    2.34103   2.46403   2.46403   2.46403   2.61861
  Beta virt. eigenvalues --    2.61861   2.62592   2.62592   2.62592   2.84912
  Beta virt. eigenvalues --    2.84912   2.84912   2.91261   2.91261   2.98968
          Condensed to atoms (all electrons):
               1          2          3          4          5          6
     1  C    7.709960  -1.476188   1.089442  -1.476188  -1.476188   1.089442
     2  C   -1.476188   7.709960  -1.476188   1.089442   1.089442  -0.797039
     3  C    1.089442  -1.476188   7.709960  -1.476188  -0.797039   1.089442
     4  C   -1.476188   1.089442  -1.476188   7.709960   1.089442  -1.476188
     5  C   -1.476188   1.089442  -0.797039   1.089442   7.709960  -1.476188
     6  C    1.089442  -0.797039   1.089442  -1.476188  -1.476188   7.709960
     7  C   -0.797039   1.089442  -1.476188   1.089442   1.089442  -1.476188
     8  C    1.089442  -1.476188   1.089442  -0.797039  -1.476188   1.089442
     9  H    0.559521  -0.109274   0.032980  -0.109274  -0.109274   0.032980
    10  H   -0.109274   0.559521  -0.109274   0.032980   0.032980  -0.007509
    11  H    0.032980  -0.109274   0.559521  -0.109274  -0.007509   0.032980
    12  H   -0.109274   0.032980  -0.109274   0.559521   0.032980  -0.109274
    13  H   -0.109274   0.032980  -0.007509   0.032980   0.559521  -0.109274
    14  H    0.032980  -0.007509   0.032980  -0.109274  -0.109274   0.559521
    15  H   -0.007509   0.032980  -0.109274   0.032980   0.032980  -0.109274
    16  H    0.032980  -0.109274   0.032980  -0.007509  -0.109274   0.032980
               7          8          9         10         11         12
     1  C   -0.797039   1.089442   0.559521  -0.109274   0.032980  -0.109274
     2  C    1.089442  -1.476188  -0.109274   0.559521  -0.109274   0.032980
     3  C   -1.476188   1.089442   0.032980  -0.109274   0.559521  -0.109274
     4  C    1.089442  -0.797039  -0.109274   0.032980  -0.109274   0.559521
     5  C    1.089442  -1.476188  -0.109274   0.032980  -0.007509   0.032980
     6  C   -1.476188   1.089442   0.032980  -0.007509   0.032980  -0.109274
     7  C    7.709960  -1.476188  -0.007509   0.032980  -0.109274   0.032980
     8  C   -1.476188   7.709960   0.032980  -0.109274   0.032980  -0.007509
     9  H   -0.007509   0.032980   0.621653  -0.006607  -0.000309  -0.006607
    10  H    0.032980  -0.109274  -0.006607   0.621653  -0.006607  -0.000309
    11  H   -0.109274   0.032980  -0.000309  -0.006607   0.621653  -0.006607
    12  H    0.032980  -0.007509  -0.006607  -0.000309  -0.006607   0.621653
    13  H    0.032980  -0.109274  -0.006607  -0.000309   0.000149  -0.000309
    14  H   -0.109274   0.032980  -0.000309   0.000149  -0.000309  -0.006607
    15  H    0.559521  -0.109274   0.000149  -0.000309  -0.006607  -0.000309
    16  H   -0.109274   0.559521  -0.000309  -0.006607  -0.000309   0.000149
              13         14         15         16
     1  C   -0.109274   0.032980  -0.007509   0.032980
     2  C    0.032980  -0.007509   0.032980  -0.109274
     3  C   -0.007509   0.032980  -0.109274   0.032980
     4  C    0.032980  -0.109274   0.032980  -0.007509
     5  C    0.559521  -0.109274   0.032980  -0.109274
     6  C   -0.109274   0.559521  -0.109274   0.032980
     7  C    0.032980  -0.109274   0.559521  -0.109274
     8  C   -0.109274   0.032980  -0.109274   0.559521
     9  H   -0.006607  -0.000309   0.000149  -0.000309
    10  H   -0.000309   0.000149  -0.000309  -0.006607
    11  H    0.000149  -0.000309  -0.006607  -0.000309
    12  H   -0.000309  -0.006607  -0.000309   0.000149
    13  H    0.621653  -0.006607  -0.000309  -0.006607
    14  H   -0.006607   0.621653  -0.006607  -0.000309
    15  H   -0.000309  -0.006607   0.621653  -0.006607
    16  H   -0.006607  -0.000309  -0.006607   0.621653
          Atomic-Atomic Spin Densities.
               1          2          3          4          5          6
     1  C    0.000000   0.000000   0.000000   0.000000   0.000000   0.000000
     2  C    0.000000   0.000000   0.000000   0.000000   0.000000   0.000000
     3  C    0.000000   0.000000   0.000000   0.000000   0.000000   0.000000
     4  C    0.000000   0.000000   0.000000   0.000000   0.000000   0.000000
     5  C    0.000000   0.000000   0.000000   0.000000   0.000000   0.000000
     6  C    0.000000   0.000000   0.000000   0.000000   0.000000   0.000000
     7  C    0.000000   0.000000   0.000000   0.000000   0.000000   0.000000
     8  C    0.000000   0.000000   0.000000   0.000000   0.000000   0.000000
     9  H    0.000000   0.000000   0.000000   0.000000   0.000000   0.000000
    10  H    0.000000   0.000000   0.000000   0.000000   0.000000   0.000000
    11  H    0.000000   0.000000   0.000000   0.000000   0.000000   0.000000
    12  H    0.000000   0.000000   0.000000   0.000000   0.000000   0.000000
    13  H    0.000000   0.000000   0.000000   0.000000   0.000000   0.000000
    14  H    0.000000   0.000000   0.000000   0.000000   0.000000   0.000000
    15  H    0.000000   0.000000   0.000000   0.000000   0.000000   0.000000
    16  H    0.000000   0.000000   0.000000   0.000000   0.000000   0.000000
               7          8          9         10         11         12
     1  C    0.000000   0.000000   0.000000   0.000000   0.000000   0.000000
     2  C    0.000000   0.000000   0.000000   0.000000   0.000000   0.000000
     3  C    0.000000   0.000000   0.000000   0.000000   0.000000   0.000000
     4  C    0.000000   0.000000   0.000000   0.000000   0.000000   0.000000
     5  C    0.000000   0.000000   0.000000   0.000000   0.000000   0.000000
     6  C    0.000000   0.000000   0.000000   0.000000   0.000000   0.000000
     7  C    0.000000   0.000000   0.000000   0.000000   0.000000   0.000000
     8  C    0.000000   0.000000   0.000000   0.000000   0.000000   0.000000
     9  H    0.000000   0.000000   0.000000   0.000000   0.000000   0.000000
    10  H    0.000000   0.000000   0.000000   0.000000   0.000000   0.000000
    11  H    0.000000   0.000000   0.000000   0.000000   0.000000   0.000000
    12  H    0.000000   0.000000   0.000000   0.000000   0.000000   0.000000
    13  H    0.000000   0.000000   0.000000   0.000000   0.000000   0.000000
    14  H    0.000000   0.000000   0.000000   0.000000   0.000000   0.000000
    15  H    0.000000   0.000000   0.000000   0.000000   0.000000   0.000000
    16  H    0.000000   0.000000   0.000000   0.000000   0.000000   0.000000
              13         14         15         16
     1  C    0.000000   0.000000   0.000000   0.000000
     2  C    0.000000   0.000000   0.000000   0.000000
     3  C    0.000000   0.000000   0.000000   0.000000
     4  C    0.000000   0.000000   0.000000   0.000000
     5  C    0.000000   0.000000   0.000000   0.000000
     6  C    0.000000   0.000000   0.000000   0.000000
     7  C    0.000000   0.000000   0.000000   0.000000
     8  C    0.000000   0.000000   0.000000   0.000000
     9  H    0.000000   0.000000   0.000000   0.000000
    10  H    0.000000   0.000000   0.000000   0.000000
    11  H    0.000000   0.000000   0.000000   0.000000
    12  H    0.000000   0.000000   0.000000   0.000000
    13  H    0.000000   0.000000   0.000000   0.000000
    14  H    0.000000   0.000000   0.000000   0.000000
    15  H    0.000000   0.000000   0.000000   0.000000
    16  H    0.000000   0.000000   0.000000   0.000000
 Mulliken charges and spin densities:
               1          2
     1  C   -0.075815   0.000000
     2  C   -0.075815   0.000000
     3  C   -0.075815   0.000000
     4  C   -0.075815   0.000000
     5  C   -0.075815   0.000000
     6  C   -0.075815   0.000000
     7  C   -0.075815   0.000000
     8  C   -0.075815   0.000000
     9  H    0.075815   0.000000
    10  H    0.075815   0.000000
    11  H    0.075815   0.000000
    12  H    0.075815   0.000000
    13  H    0.075815   0.000000
    14  H    0.075815   0.000000
    15  H    0.075815   0.000000
    16  H    0.075815   0.000000
 Sum of Mulliken charges =  -0.00000   0.00000
 Mulliken charges and spin densities with hydrogens summed into heavy atoms:
               1          2
     1  C   -0.000000   0.000000
     2  C   -0.000000   0.000000
     3  C   -0.000000   0.000000
     4  C   -0.000000   0.000000
     5  C   -0.000000   0.000000
     6  C   -0.000000   0.000000
     7  C   -0.000000   0.000000
     8  C    0.000000   0.000000
 Electronic spatial extent (au):  <R**2>=            595.2636
 Charge=              0.0000 electrons
 Dipole moment (field-independent basis, Debye):
    X=              0.0000    Y=             -0.0000    Z=              0.0000  Tot=              0.0000
 Quadrupole moment (field-independent basis, Debye-Ang):
   XX=            -46.6184   YY=            -46.6184   ZZ=            -46.6184
   XY=              0.0000   XZ=              0.0000   YZ=              0.0000
 Traceless Quadrupole moment (field-independent basis, Debye-Ang):
   XX=             -0.0000   YY=             -0.0000   ZZ=              0.0000
   XY=              0.0000   XZ=              0.0000   YZ=              0.0000
 Octapole moment (field-independent basis, Debye-Ang**2):
  XXX=              0.0000  YYY=              0.0000  ZZZ=             -0.0000  XYY=              0.0000
  XXY=              0.0000  XXZ=             -0.0000  XZZ=              0.0000  YZZ=             -0.0000
  YYZ=              0.0000  XYZ=              0.0000
 Hexadecapole moment (field-independent basis, Debye-Ang**3):
 XXXX=           -274.8167 YYYY=           -274.8167 ZZZZ=           -274.8167 XXXY=             -0.0000
 XXXZ=              0.0000 YYYX=             -0.0000 YYYZ=              0.0000 ZZZX=              0.0000
 ZZZY=             -0.0000 XXYY=            -85.3377 XXZZ=            -85.3377 YYZZ=            -85.3377
 XXYZ=              0.0000 YYXZ=             -0.0000 ZZXY=             -0.0000
 N-N= 3.657564787853D+02 E-N=-1.446677238235D+03  KE= 3.055811296349D+02
 Symmetry AG   KE= 4.041155811312D+01
 Symmetry B1G  KE= 3.748082908538D+01
 Symmetry B2G  KE= 3.748082908538D+01
 Symmetry B3G  KE= 3.748082908538D+01
 Symmetry AU   KE= 3.409458988479D+01
 Symmetry B1U  KE= 3.954416479363D+01
 Symmetry B2U  KE= 3.954416479363D+01
 Symmetry B3U  KE= 3.954416479363D+01
 Symmetry AG   SP= 0.000000000000D+00
 Symmetry B1G  SP= 0.000000000000D+00
 Symmetry B2G  SP= 0.000000000000D+00
 Symmetry B3G  SP= 0.000000000000D+00
 Symmetry AU   SP= 0.000000000000D+00
 Symmetry B1U  SP= 0.000000000000D+00
 Symmetry B2U  SP= 0.000000000000D+00
 Symmetry B3U  SP= 0.000000000000D+00
                          Isotropic Fermi Contact Couplings
        Atom                 a.u.       MegaHertz       Gauss      10(-4) cm-1
     1  C(13)              0.00000       0.00000       0.00000       0.00000
     2  C(13)              0.00000       0.00000       0.00000       0.00000
     3  C(13)              0.00000       0.00000       0.00000       0.00000
     4  C(13)              0.00000       0.00000       0.00000       0.00000
     5  C(13)              0.00000       0.00000       0.00000       0.00000
     6  C(13)              0.00000       0.00000       0.00000       0.00000
     7  C(13)              0.00000       0.00000       0.00000       0.00000
     8  C(13)              0.00000       0.00000       0.00000       0.00000
     9  H(1)               0.00000       0.00000       0.00000       0.00000
    10  H(1)               0.00000       0.00000       0.00000       0.00000
    11  H(1)               0.00000       0.00000       0.00000       0.00000
    12  H(1)               0.00000       0.00000       0.00000       0.00000
    13  H(1)               0.00000       0.00000       0.00000       0.00000
    14  H(1)               0.00000       0.00000       0.00000       0.00000
    15  H(1)               0.00000       0.00000       0.00000       0.00000
    16  H(1)               0.00000       0.00000       0.00000       0.00000
 --------------------------------------------------------
       Center         ----  Spin Dipole Couplings  ----
                      3XX-RR        3YY-RR        3ZZ-RR
 --------------------------------------------------------
     1   Atom        0.000000      0.000000      0.000000
     2   Atom        0.000000      0.000000      0.000000
     3   Atom        0.000000      0.000000      0.000000
     4   Atom        0.000000      0.000000      0.000000
     5   Atom        0.000000      0.000000      0.000000
     6   Atom        0.000000      0.000000      0.000000
     7   Atom        0.000000      0.000000      0.000000
     8   Atom        0.000000      0.000000      0.000000
     9   Atom        0.000000      0.000000      0.000000
    10   Atom        0.000000      0.000000      0.000000
    11   Atom        0.000000      0.000000      0.000000
    12   Atom        0.000000      0.000000      0.000000
    13   Atom        0.000000      0.000000      0.000000
    14   Atom        0.000000      0.000000      0.000000
    15   Atom        0.000000      0.000000      0.000000
    16   Atom        0.000000      0.000000      0.000000
 --------------------------------------------------------
                        XY            XZ            YZ
 --------------------------------------------------------
     1   Atom        0.000000      0.000000      0.000000
     2   Atom        0.000000      0.000000      0.000000
     3   Atom        0.000000      0.000000      0.000000
     4   Atom        0.000000      0.000000      0.000000
     5   Atom        0.000000      0.000000      0.000000
     6   Atom        0.000000      0.000000      0.000000
     7   Atom        0.000000      0.000000      0.000000
     8   Atom        0.000000      0.000000      0.000000
     9   Atom        0.000000      0.000000      0.000000
    10   Atom        0.000000      0.000000      0.000000
    11   Atom        0.000000      0.000000      0.000000
    12   Atom        0.000000      0.000000      0.000000
    13   Atom        0.000000      0.000000      0.000000
    14   Atom        0.000000      0.000000      0.000000
    15   Atom        0.000000      0.000000      0.000000
    16   Atom        0.000000      0.000000      0.000000
 --------------------------------------------------------


 ---------------------------------------------------------------------------------
              Anisotropic Spin Dipole Couplings in Principal Axis System
 ---------------------------------------------------------------------------------

       Atom             a.u.   MegaHertz   Gauss  10(-4) cm-1        Axes

              Baa     0.0000     0.000     0.000     0.000  1.0000  0.0000  0.0000
     1 C(13)  Bbb     0.0000     0.000     0.000     0.000 -0.0000  1.0000  0.0000
              Bcc     0.0000     0.000     0.000     0.000  0.0000  0.0000  1.0000
 
              Baa     0.0000     0.000     0.000     0.000  1.0000  0.0000  0.0000
     2 C(13)  Bbb     0.0000     0.000     0.000     0.000 -0.0000  1.0000  0.0000
              Bcc     0.0000     0.000     0.000     0.000  0.0000  0.0000  1.0000
 
              Baa     0.0000     0.000     0.000     0.000  1.0000  0.0000  0.0000
     3 C(13)  Bbb     0.0000     0.000     0.000     0.000 -0.0000  1.0000  0.0000
              Bcc     0.0000     0.000     0.000     0.000  0.0000  0.0000  1.0000
 
              Baa     0.0000     0.000     0.000     0.000  1.0000  0.0000  0.0000
     4 C(13)  Bbb     0.0000     0.000     0.000     0.000 -0.0000  1.0000  0.0000
              Bcc     0.0000     0.000     0.000     0.000  0.0000  0.0000  1.0000
 
              Baa     0.0000     0.000     0.000     0.000  1.0000  0.0000  0.0000
     5 C(13)  Bbb     0.0000     0.000     0.000     0.000 -0.0000  1.0000  0.0000
              Bcc     0.0000     0.000     0.000     0.000  0.0000  0.0000  1.0000
 
              Baa     0.0000     0.000     0.000     0.000  1.0000  0.0000  0.0000
     6 C(13)  Bbb     0.0000     0.000     0.000     0.000 -0.0000  1.0000  0.0000
              Bcc     0.0000     0.000     0.000     0.000  0.0000  0.0000  1.0000
 
              Baa     0.0000     0.000     0.000     0.000  1.0000  0.0000  0.0000
     7 C(13)  Bbb     0.0000     0.000     0.000     0.000 -0.0000  1.0000  0.0000
              Bcc     0.0000     0.000     0.000     0.000  0.0000  0.0000  1.0000
 
              Baa     0.0000     0.000     0.000     0.000  1.0000  0.0000  0.0000
     8 C(13)  Bbb     0.0000     0.000     0.000     0.000 -0.0000  1.0000  0.0000
              Bcc     0.0000     0.000     0.000     0.000  0.0000  0.0000  1.0000
 
              Baa     0.0000     0.000     0.000     0.000  1.0000  0.0000  0.0000
     9 H(1)   Bbb     0.0000     0.000     0.000     0.000 -0.0000  1.0000  0.0000
              Bcc     0.0000     0.000     0.000     0.000  0.0000  0.0000  1.0000
 
              Baa     0.0000     0.000     0.000     0.000  1.0000  0.0000  0.0000
    10 H(1)   Bbb     0.0000     0.000     0.000     0.000 -0.0000  1.0000  0.0000
              Bcc     0.0000     0.000     0.000     0.000  0.0000  0.0000  1.0000
 
              Baa     0.0000     0.000     0.000     0.000  1.0000  0.0000  0.0000
    11 H(1)   Bbb     0.0000     0.000     0.000     0.000 -0.0000  1.0000  0.0000
              Bcc     0.0000     0.000     0.000     0.000  0.0000  0.0000  1.0000
 
              Baa     0.0000     0.000     0.000     0.000  1.0000  0.0000  0.0000
    12 H(1)   Bbb     0.0000     0.000     0.000     0.000 -0.0000  1.0000  0.0000
              Bcc     0.0000     0.000     0.000     0.000  0.0000  0.0000  1.0000
 
              Baa     0.0000     0.000     0.000     0.000  1.0000  0.0000  0.0000
    13 H(1)   Bbb     0.0000     0.000     0.000     0.000 -0.0000  1.0000  0.0000
              Bcc     0.0000     0.000     0.000     0.000  0.0000  0.0000  1.0000
 
              Baa     0.0000     0.000     0.000     0.000  1.0000  0.0000  0.0000
    14 H(1)   Bbb     0.0000     0.000     0.000     0.000 -0.0000  1.0000  0.0000
              Bcc     0.0000     0.000     0.000     0.000  0.0000  0.0000  1.0000
 
              Baa     0.0000     0.000     0.000     0.000  1.0000  0.0000  0.0000
    15 H(1)   Bbb     0.0000     0.000     0.000     0.000 -0.0000  1.0000  0.0000
              Bcc     0.0000     0.000     0.000     0.000  0.0000  0.0000  1.0000
 
              Baa     0.0000     0.000     0.000     0.000  1.0000  0.0000  0.0000
    16 H(1)   Bbb     0.0000     0.000     0.000     0.000 -0.0000  1.0000  0.0000
              Bcc     0.0000     0.000     0.000     0.000  0.0000  0.0000  1.0000
 

 ---------------------------------------------------------------------------------

  48 Symmetry operations used in ECPInt.
 ECPInt:  NShTT=    2080 NPrTT=    8384 LenC2=    2081 LenP2D=    6976.
 LDataN:  DoStor=T MaxTD1= 5 Len=  102
 Calling FoFJK, ICntrl=      2127 FMM=F ISym2X=1 I1Cent= 0 IOpClX= 1 NMat=1 NMatS=1 NMatT=0.
 ***** Axes restored to original set *****
 -------------------------------------------------------------------
 Center     Atomic                   Forces (Hartrees/Bohr)
 Number     Number              X              Y              Z
 -------------------------------------------------------------------
      1        6           0.012454178   -0.012454178    0.012454178
      2        6           0.012454178    0.012454178    0.012454178
      3        6          -0.012454178    0.012454178    0.012454178
      4        6          -0.012454178   -0.012454178    0.012454178
      5        6           0.012454178   -0.012454178   -0.012454178
      6        6          -0.012454178   -0.012454178   -0.012454178
      7        6          -0.012454178    0.012454178   -0.012454178
      8        6           0.012454178    0.012454178   -0.012454178
      9        1          -0.004897742    0.004897742   -0.004897742
     10        1          -0.004897742   -0.004897742   -0.004897742
     11        1           0.004897742   -0.004897742   -0.004897742
     12        1           0.004897742    0.004897742   -0.004897742
     13        1          -0.004897742    0.004897742    0.004897742
     14        1           0.004897742    0.004897742    0.004897742
     15        1           0.004897742   -0.004897742    0.004897742
     16        1          -0.004897742   -0.004897742    0.004897742
 -------------------------------------------------------------------
 Cartesian Forces:  Max     0.012454178 RMS     0.009462939

 GradGradGradGradGradGradGradGradGradGradGradGradGradGradGradGradGradGrad
 Berny optimization.
 FormGI is forming the generalized inverse of G from B-inverse, IUseBI=4.
 Internal  Forces:  Max     0.008483139 RMS     0.002676609
 Search for a local minimum.
 Step number   1 out of a maximum of  100
 All quantities printed in internal units (Hartrees-Bohrs-Radians)
 Mixed Optimization -- RFO/linear search
 Second derivative matrix not updated -- first step.
 ITU=  0
     Eigenvalues ---    0.02106   0.02106   0.02139   0.02139   0.02139
     Eigenvalues ---    0.02742   0.02742   0.02742   0.03384   0.03384
     Eigenvalues ---    0.03384   0.03409   0.03409   0.04122   0.04122
     Eigenvalues ---    0.04122   0.04172   0.04173   0.11016   0.11016
     Eigenvalues ---    0.11016   0.11115   0.12132   0.12132   0.12132
     Eigenvalues ---    0.19700   0.19700   0.19700   0.19704   0.19704
     Eigenvalues ---    0.19704   0.25493   0.25493   0.25493   0.35320
     Eigenvalues ---    0.35320   0.35320   0.35320   0.35320   0.35320
     Eigenvalues ---    0.35320   0.35320
 RFO step:  Lambda=-4.25427628D-03 EMin= 2.10620145D-02
 Linear search not attempted -- first point.
 Iteration  1 RMS(Cart)=  0.00539284 RMS(Int)=  0.00000000
 Iteration  2 RMS(Cart)=  0.00000000 RMS(Int)=  0.00000000
 ClnCor:  largest displacement from symmetrization is 6.17D-09 for atom    15.
 Variable       Old X    -DE/DX   Delta X   Delta X   Delta X     New X
                                 (Linear)    (Quad)   (Total)
    R1        2.97972  -0.00756   0.00000  -0.02916  -0.02916   2.95057
    R2        2.97972  -0.00756   0.00000  -0.02916  -0.02916   2.95057
    R3        2.97972  -0.00756   0.00000  -0.02916  -0.02916   2.95057
    R4        2.05158   0.00848   0.00000   0.02373   0.02373   2.07531
    R5        2.97972  -0.00756   0.00000  -0.02916  -0.02916   2.95057
    R6        2.97972  -0.00756   0.00000  -0.02916  -0.02916   2.95057
    R7        2.05158   0.00848   0.00000   0.02373   0.02373   2.07531
    R8        2.97972  -0.00756   0.00000  -0.02916  -0.02916   2.95057
    R9        2.97972  -0.00756   0.00000  -0.02916  -0.02916   2.95057
   R10        2.05158   0.00848   0.00000   0.02373   0.02373   2.07531
   R11        2.97972  -0.00756   0.00000  -0.02916  -0.02916   2.95057
   R12        2.05158   0.00848   0.00000   0.02373   0.02373   2.07531
   R13        2.97972  -0.00756   0.00000  -0.02916  -0.02916   2.95057
   R14        2.97972  -0.00756   0.00000  -0.02916  -0.02916   2.95057
   R15        2.05158   0.00848   0.00000   0.02373   0.02373   2.07531
   R16        2.97972  -0.00756   0.00000  -0.02916  -0.02916   2.95057
   R17        2.05158   0.00848   0.00000   0.02373   0.02373   2.07531
   R18        2.97972  -0.00756   0.00000  -0.02916  -0.02916   2.95057
   R19        2.05158   0.00848   0.00000   0.02373   0.02373   2.07531
   R20        2.05158   0.00848   0.00000   0.02373   0.02373   2.07531
    A1        1.57080  -0.00000   0.00000  -0.00000   0.00000   1.57080
    A2        1.57080  -0.00000   0.00000  -0.00000   0.00000   1.57080
    A3        2.18628   0.00000   0.00000   0.00000   0.00000   2.18628
    A4        1.57080   0.00000   0.00000  -0.00000   0.00000   1.57080
    A5        2.18628  -0.00000   0.00000  -0.00000   0.00000   2.18628
    A6        2.18628   0.00000   0.00000  -0.00000   0.00000   2.18628
    A7        1.57080   0.00000   0.00000   0.00000   0.00000   1.57080
    A8        1.57080  -0.00000   0.00000  -0.00000   0.00000   1.57080
    A9        2.18628  -0.00000   0.00000   0.00000   0.00000   2.18628
   A10        1.57080   0.00000   0.00000   0.00000   0.00000   1.57080
   A11        2.18628  -0.00000   0.00000  -0.00000  -0.00000   2.18628
   A12        2.18628  -0.00000   0.00000  -0.00000   0.00000   2.18628
   A13        1.57080  -0.00000   0.00000  -0.00000   0.00000   1.57080
   A14        1.57080  -0.00000   0.00000  -0.00000   0.00000   1.57080
   A15        2.18628   0.00000   0.00000   0.00000   0.00000   2.18628
   A16        1.57080  -0.00000   0.00000   0.00000   0.00000   1.57080
   A17        2.18628   0.00000   0.00000  -0.00000  -0.00000   2.18628
   A18        2.18628   0.00000   0.00000   0.00000   0.00000   2.18628
   A19        1.57080  -0.00000   0.00000   0.00000   0.00000   1.57080
   A20        1.57080  -0.00000   0.00000  -0.00000   0.00000   1.57080
   A21        2.18628   0.00000   0.00000   0.00000   0.00000   2.18628
   A22        1.57080  -0.00000   0.00000  -0.00000   0.00000   1.57080
   A23        2.18628   0.00000   0.00000   0.00000  -0.00000   2.18628
   A24        2.18628   0.00000   0.00000  -0.00000   0.00000   2.18628
   A25        1.57080   0.00000   0.00000   0.00000   0.00000   1.57080
   A26        1.57080   0.00000   0.00000  -0.00000   0.00000   1.57080
   A27        2.18628   0.00000   0.00000   0.00000   0.00000   2.18628
   A28        1.57080   0.00000   0.00000   0.00000   0.00000   1.57080
   A29        2.18628   0.00000   0.00000  -0.00000   0.00000   2.18628
   A30        2.18628  -0.00000   0.00000  -0.00000   0.00000   2.18628
   A31        1.57080   0.00000   0.00000   0.00000   0.00000   1.57080
   A32        1.57080   0.00000   0.00000   0.00000   0.00000   1.57080
   A33        2.18628  -0.00000   0.00000   0.00000   0.00000   2.18628
   A34        1.57080  -0.00000   0.00000  -0.00000   0.00000   1.57080
   A35        2.18628  -0.00000   0.00000  -0.00000   0.00000   2.18628
   A36        2.18628  -0.00000   0.00000  -0.00000   0.00000   2.18628
   A37        1.57080   0.00000   0.00000  -0.00000   0.00000   1.57080
   A38        1.57080   0.00000   0.00000   0.00000   0.00000   1.57080
   A39        2.18628  -0.00000   0.00000  -0.00000   0.00000   2.18628
   A40        1.57080  -0.00000   0.00000   0.00000   0.00000   1.57080
   A41        2.18628  -0.00000   0.00000  -0.00000   0.00000   2.18628
   A42        2.18628   0.00000   0.00000   0.00000   0.00000   2.18628
   A43        1.57080   0.00000   0.00000   0.00000   0.00000   1.57080
   A44        1.57080  -0.00000   0.00000  -0.00000   0.00000   1.57080
   A45        2.18628   0.00000   0.00000  -0.00000   0.00000   2.18628
   A46        1.57080  -0.00000   0.00000  -0.00000   0.00000   1.57080
   A47        2.18628  -0.00000   0.00000   0.00000   0.00000   2.18628
   A48        2.18628   0.00000   0.00000   0.00000   0.00000   2.18628
    D1        0.00000  -0.00000   0.00000   0.00000   0.00000   0.00000
    D2        1.57080   0.00000   0.00000   0.00000   0.00000   1.57080
    D3       -2.35619   0.00000   0.00000   0.00000   0.00000  -2.35619
    D4       -1.57080  -0.00000   0.00000   0.00000   0.00000  -1.57080
    D5        0.00000   0.00000   0.00000   0.00000   0.00000   0.00000
    D6        2.35619   0.00000   0.00000   0.00000   0.00000   2.35619
    D7        2.35619  -0.00000   0.00000   0.00000   0.00000   2.35619
    D8       -2.35619   0.00000   0.00000   0.00000  -0.00000  -2.35619
    D9        0.00000   0.00000   0.00000   0.00000   0.00000   0.00000
   D10        0.00000   0.00000   0.00000  -0.00000   0.00000   0.00000
   D11       -1.57080   0.00000   0.00000   0.00000   0.00000  -1.57080
   D12        2.35619   0.00000   0.00000   0.00000   0.00000   2.35619
   D13        1.57080  -0.00000   0.00000  -0.00000   0.00000   1.57080
   D14        0.00000   0.00000   0.00000   0.00000   0.00000   0.00000
   D15       -2.35619   0.00000   0.00000   0.00000   0.00000  -2.35619
   D16       -2.35619  -0.00000   0.00000  -0.00000   0.00000  -2.35619
   D17        2.35619   0.00000   0.00000   0.00000   0.00000   2.35619
   D18        0.00000   0.00000   0.00000   0.00000   0.00000   0.00000
   D19        1.57080  -0.00000   0.00000  -0.00000   0.00000   1.57080
   D20        0.00000  -0.00000   0.00000  -0.00000   0.00000   0.00000
   D21       -2.35619  -0.00000   0.00000  -0.00000  -0.00000  -2.35619
   D22        0.00000  -0.00000   0.00000  -0.00000   0.00000   0.00000
   D23       -1.57080  -0.00000   0.00000  -0.00000   0.00000  -1.57080
   D24        2.35619   0.00000   0.00000   0.00000   0.00000   2.35619
   D25       -2.35619   0.00000   0.00000  -0.00000   0.00000  -2.35619
   D26        2.35619  -0.00000   0.00000  -0.00000   0.00000   2.35619
   D27        0.00000   0.00000   0.00000   0.00000  -0.00000   0.00000
   D28        0.00000   0.00000   0.00000  -0.00000   0.00000   0.00000
   D29        1.57080  -0.00000   0.00000   0.00000   0.00000   1.57080
   D30       -2.35619   0.00000   0.00000   0.00000   0.00000  -2.35619
   D31       -1.57080   0.00000   0.00000   0.00000   0.00000  -1.57080
   D32        0.00000  -0.00000   0.00000   0.00000   0.00000   0.00000
   D33        2.35619   0.00000   0.00000   0.00000   0.00000   2.35619
   D34        2.35619   0.00000   0.00000   0.00000   0.00000   2.35619
   D35       -2.35619  -0.00000   0.00000   0.00000   0.00000  -2.35619
   D36        0.00000   0.00000   0.00000   0.00000   0.00000   0.00000
   D37        0.00000  -0.00000   0.00000  -0.00000   0.00000   0.00000
   D38       -1.57080  -0.00000   0.00000  -0.00000   0.00000  -1.57080
   D39        2.35619  -0.00000   0.00000  -0.00000   0.00000   2.35619
   D40        1.57080   0.00000   0.00000  -0.00000   0.00000   1.57080
   D41        0.00000   0.00000   0.00000  -0.00000   0.00000   0.00000
   D42       -2.35619   0.00000   0.00000   0.00000   0.00000  -2.35619
   D43       -2.35619  -0.00000   0.00000  -0.00000  -0.00000  -2.35619
   D44        2.35619  -0.00000   0.00000  -0.00000   0.00000   2.35619
   D45        0.00000  -0.00000   0.00000  -0.00000   0.00000   0.00000
   D46        0.00000  -0.00000   0.00000   0.00000   0.00000   0.00000
   D47        1.57080  -0.00000   0.00000  -0.00000   0.00000   1.57080
   D48       -2.35619  -0.00000   0.00000  -0.00000   0.00000  -2.35619
   D49       -1.57080   0.00000   0.00000   0.00000   0.00000  -1.57080
   D50        0.00000   0.00000   0.00000   0.00000   0.00000   0.00000
   D51        2.35619  -0.00000   0.00000  -0.00000   0.00000   2.35619
   D52        2.35619   0.00000   0.00000   0.00000   0.00000   2.35619
   D53       -2.35619  -0.00000   0.00000   0.00000  -0.00000  -2.35619
   D54        0.00000  -0.00000   0.00000  -0.00000   0.00000   0.00000
   D55       -1.57080   0.00000   0.00000  -0.00000   0.00000  -1.57080
   D56        0.00000   0.00000   0.00000  -0.00000   0.00000   0.00000
   D57        2.35619   0.00000   0.00000   0.00000   0.00000   2.35619
   D58       -0.00000  -0.00000   0.00000  -0.00000   0.00000   0.00000
   D59        1.57080  -0.00000   0.00000  -0.00000   0.00000   1.57080
   D60       -2.35619   0.00000   0.00000   0.00000  -0.00000  -2.35619
   D61        2.35619  -0.00000   0.00000  -0.00000   0.00000   2.35619
   D62       -2.35619  -0.00000   0.00000  -0.00000   0.00000  -2.35619
   D63       -0.00000  -0.00000   0.00000   0.00000   0.00000   0.00000
   D64        0.00000  -0.00000   0.00000  -0.00000   0.00000   0.00000
   D65        1.57080  -0.00000   0.00000  -0.00000   0.00000   1.57080
   D66       -2.35619  -0.00000   0.00000  -0.00000   0.00000  -2.35619
   D67       -1.57080  -0.00000   0.00000  -0.00000   0.00000  -1.57080
   D68       -0.00000  -0.00000   0.00000  -0.00000   0.00000   0.00000
   D69        2.35619  -0.00000   0.00000  -0.00000   0.00000   2.35619
   D70        2.35619   0.00000   0.00000   0.00000   0.00000   2.35619
   D71       -2.35619   0.00000   0.00000  -0.00000  -0.00000  -2.35619
   D72        0.00000   0.00000   0.00000   0.00000   0.00000   0.00000
   D73        0.00000   0.00000   0.00000   0.00000   0.00000   0.00000
   D74       -1.57080  -0.00000   0.00000  -0.00000   0.00000  -1.57080
   D75        2.35619   0.00000   0.00000   0.00000   0.00000   2.35619
   D76        1.57080   0.00000   0.00000   0.00000   0.00000   1.57080
   D77        0.00000  -0.00000   0.00000  -0.00000   0.00000   0.00000
   D78       -2.35619   0.00000   0.00000   0.00000   0.00000  -2.35619
   D79       -2.35619  -0.00000   0.00000  -0.00000   0.00000  -2.35619
   D80        2.35619  -0.00000   0.00000  -0.00000   0.00000   2.35619
   D81        0.00000  -0.00000   0.00000  -0.00000   0.00000   0.00000
   D82        0.00000   0.00000   0.00000   0.00000   0.00000   0.00000
   D83        1.57080   0.00000   0.00000   0.00000   0.00000   1.57080
   D84       -2.35619   0.00000   0.00000   0.00000  -0.00000  -2.35619
   D85       -1.57080   0.00000   0.00000   0.00000   0.00000  -1.57080
   D86        0.00000   0.00000   0.00000   0.00000   0.00000   0.00000
   D87        2.35619   0.00000   0.00000   0.00000   0.00000   2.35619
   D88        2.35619   0.00000   0.00000   0.00000   0.00000   2.35619
   D89       -2.35619   0.00000   0.00000   0.00000   0.00000  -2.35619
   D90        0.00000   0.00000   0.00000   0.00000   0.00000   0.00000
   D91        0.00000   0.00000   0.00000   0.00000   0.00000   0.00000
   D92       -1.57080  -0.00000   0.00000   0.00000   0.00000  -1.57080
   D93        2.35619  -0.00000   0.00000  -0.00000   0.00000   2.35619
   D94        1.57080   0.00000   0.00000   0.00000   0.00000   1.57080
   D95        0.00000   0.00000   0.00000   0.00000   0.00000   0.00000
   D96       -2.35619   0.00000   0.00000   0.00000   0.00000  -2.35619
   D97       -2.35619   0.00000   0.00000  -0.00000   0.00000  -2.35619
   D98        2.35619  -0.00000   0.00000  -0.00000  -0.00000   2.35619
   D99       -0.00000  -0.00000   0.00000  -0.00000   0.00000   0.00000
   D100       0.00000  -0.00000   0.00000   0.00000   0.00000   0.00000
   D101      -1.57080  -0.00000   0.00000  -0.00000   0.00000  -1.57080
   D102       2.35619  -0.00000   0.00000  -0.00000   0.00000   2.35619
   D103       1.57080   0.00000   0.00000   0.00000   0.00000   1.57080
   D104       0.00000  -0.00000   0.00000  -0.00000   0.00000   0.00000
   D105      -2.35619   0.00000   0.00000  -0.00000   0.00000  -2.35619
   D106      -2.35619   0.00000   0.00000  -0.00000   0.00000  -2.35619
   D107       2.35619  -0.00000   0.00000  -0.00000   0.00000   2.35619
   D108      -0.00000  -0.00000   0.00000  -0.00000   0.00000   0.00000
         Item               Value     Threshold  Converged?
 Maximum Force            0.008483     0.000450     NO 
 RMS     Force            0.002677     0.000300     NO 
 Maximum Displacement     0.014578     0.001800     NO 
 RMS     Displacement     0.005393     0.001200     NO 
 Predicted change in Energy=-2.158420D-03
 GradGradGradGradGradGradGradGradGradGradGradGradGradGradGradGradGradGrad

                          Input orientation:                          
 ---------------------------------------------------------------------
 Center     Atomic      Atomic             Coordinates (Angstroms)
 Number     Number       Type             X           Y           Z
 ---------------------------------------------------------------------
      1          6           0       -0.780686    0.780686   -0.780686
      2          6           0       -0.780686   -0.780686   -0.780686
      3          6           0        0.780686   -0.780686   -0.780686
      4          6           0        0.780686    0.780686   -0.780686
      5          6           0       -0.780686    0.780686    0.780686
      6          6           0        0.780686    0.780686    0.780686
      7          6           0        0.780686   -0.780686    0.780686
      8          6           0       -0.780686   -0.780686    0.780686
      9          1           0       -1.414736    1.414736   -1.414736
     10          1           0       -1.414736   -1.414736   -1.414736
     11          1           0        1.414736   -1.414736   -1.414736
     12          1           0        1.414736    1.414736   -1.414736
     13          1           0       -1.414736    1.414736    1.414736
     14          1           0        1.414736    1.414736    1.414736
     15          1           0        1.414736   -1.414736    1.414736
     16          1           0       -1.414736   -1.414736    1.414736
 ---------------------------------------------------------------------
                    Distance matrix (angstroms):
                    1          2          3          4          5
     1  C    0.000000
     2  C    1.561372   0.000000
     3  C    2.208113   1.561372   0.000000
     4  C    1.561372   2.208113   1.561372   0.000000
     5  C    1.561372   2.208113   2.704375   2.208113   0.000000
     6  C    2.208113   2.704375   2.208113   1.561372   1.561372
     7  C    2.704375   2.208113   1.561372   2.208113   2.208113
     8  C    2.208113   1.561372   2.208113   2.704375   1.561372
     9  H    1.098208   2.371480   3.168877   2.371480   2.371480
    10  H    2.371480   1.098208   2.371480   3.168877   3.168877
    11  H    3.168877   2.371480   1.098208   2.371480   3.802583
    12  H    2.371480   3.168877   2.371480   1.098208   3.168877
    13  H    2.371480   3.168877   3.802583   3.168877   1.098208
    14  H    3.168877   3.802583   3.168877   2.371480   2.371480
    15  H    3.802583   3.168877   2.371480   3.168877   3.168877
    16  H    3.168877   2.371480   3.168877   3.802583   2.371480
                    6          7          8          9         10
     6  C    0.000000
     7  C    1.561372   0.000000
     8  C    2.208113   1.561372   0.000000
     9  H    3.168877   3.802583   3.168877   0.000000
    10  H    3.802583   3.168877   2.371480   2.829473   0.000000
    11  H    3.168877   2.371480   3.168877   4.001479   2.829473
    12  H    2.371480   3.168877   3.802583   2.829473   4.001479
    13  H    2.371480   3.168877   2.371480   2.829473   4.001479
    14  H    1.098208   2.371480   3.168877   4.001479   4.900791
    15  H    2.371480   1.098208   2.371480   4.900791   4.001479
    16  H    3.168877   2.371480   1.098208   4.001479   2.829473
                   11         12         13         14         15
    11  H    0.000000
    12  H    2.829473   0.000000
    13  H    4.900791   4.001479   0.000000
    14  H    4.001479   2.829473   2.829473   0.000000
    15  H    2.829473   4.001479   4.001479   2.829473   0.000000
    16  H    4.001479   4.900791   2.829473   4.001479   2.829473
                   16
    16  H    0.000000
 Stoichiometry    C8H8
 Framework group  OH[4C3(HC.CH)]
 Deg. of freedom     2
 Full point group                 OH      NOp  48
 Largest Abelian subgroup         D2H     NOp   8
 Largest concise Abelian subgroup D2H     NOp   8
                         Standard orientation:                         
 ---------------------------------------------------------------------
 Center     Atomic      Atomic             Coordinates (Angstroms)
 Number     Number       Type             X           Y           Z
 ---------------------------------------------------------------------
      1          6           0        0.780686    0.780686    0.780686
      2          6           0       -0.780686    0.780686    0.780686
      3          6           0       -0.780686    0.780686   -0.780686
      4          6           0        0.780686    0.780686   -0.780686
      5          6           0        0.780686   -0.780686    0.780686
      6          6           0        0.780686   -0.780686   -0.780686
      7          6           0       -0.780686   -0.780686   -0.780686
      8          6           0       -0.780686   -0.780686    0.780686
      9          1           0        1.414736    1.414736    1.414736
     10          1           0       -1.414736    1.414736    1.414736
     11          1           0       -1.414736    1.414736   -1.414736
     12          1           0        1.414736    1.414736   -1.414736
     13          1           0        1.414736   -1.414736    1.414736
     14          1           0        1.414736   -1.414736   -1.414736
     15          1           0       -1.414736   -1.414736   -1.414736
     16          1           0       -1.414736   -1.414736    1.414736
 ---------------------------------------------------------------------
 Rotational constants (GHZ):           3.3851583           3.3851583           3.3851583
 Standard basis: def2SVPP (5D, 7F)
 There are    17 symmetry adapted cartesian basis functions of AG  symmetry.
 There are    17 symmetry adapted cartesian basis functions of B1G symmetry.
 There are    17 symmetry adapted cartesian basis functions of B2G symmetry.
 There are    17 symmetry adapted cartesian basis functions of B3G symmetry.
 There are    17 symmetry adapted cartesian basis functions of AU  symmetry.
 There are    17 symmetry adapted cartesian basis functions of B1U symmetry.
 There are    17 symmetry adapted cartesian basis functions of B2U symmetry.
 There are    17 symmetry adapted cartesian basis functions of B3U symmetry.
 There are    16 symmetry adapted basis functions of AG  symmetry.
 There are    16 symmetry adapted basis functions of B1G symmetry.
 There are    16 symmetry adapted basis functions of B2G symmetry.
[...]
 ! D100  D(3,7,8,2)              0.0            -DE/DX =    0.0                 !
 ! D101  D(3,7,8,5)            -90.0            -DE/DX =    0.0                 !
 ! D102  D(3,7,8,16)           135.0            -DE/DX =    0.0                 !
 ! D103  D(6,7,8,2)             90.0            -DE/DX =    0.0                 !
 ! D104  D(6,7,8,5)              0.0            -DE/DX =    0.0                 !
 ! D105  D(6,7,8,16)          -135.0            -DE/DX =    0.0                 !
 ! D106  D(15,7,8,2)          -135.0            -DE/DX =    0.0                 !
 ! D107  D(15,7,8,5)           135.0            -DE/DX =    0.0                 !
 ! D108  D(15,7,8,16)            0.0            -DE/DX =    0.0                 !
 --------------------------------------------------------------------------------
 GradGradGradGradGradGradGradGradGradGradGradGradGradGradGradGradGradGrad

 Dipole is zero, so no output in dipole orientation.

 ----------------------------------------------------------------------

 Electric dipole moment (input orientation):
 (Debye = 10**-18 statcoulomb cm , SI units = C m)
                  (au)            (Debye)         (10**-30 SI)
   Tot        0.000000D+00      0.000000D+00      0.000000D+00
   x          0.000000D+00      0.000000D+00      0.000000D+00
   y          0.000000D+00      0.000000D+00      0.000000D+00
   z          0.000000D+00      0.000000D+00      0.000000D+00

 Dipole polarizability, Alpha (input orientation).
 (esu units = cm**3 , SI units = C**2 m**2 J**-1)
 Alpha(0;0):
               (au)            (10**-24 esu)      (10**-40 SI)
   iso        0.666927D+02      0.988283D+01      0.109961D+02
   aniso      0.000000D+00      0.000000D+00      0.000000D+00
   xx         0.666927D+02      0.988283D+01      0.109961D+02
   yx         0.000000D+00      0.000000D+00      0.000000D+00
   yy         0.666927D+02      0.988283D+01      0.109961D+02
   zx         0.000000D+00      0.000000D+00      0.000000D+00
   zy         0.000000D+00      0.000000D+00      0.000000D+00
   zz         0.666927D+02      0.988283D+01      0.109961D+02

 ----------------------------------------------------------------------
 Unable to Open any file for archive entry.
 1\1\GINC-GADI-CPU-CLX-0382\Freq\UwB97XD\def2SVPP\C8H8\NP9048\12-Sep-20
 25\0\\#N Geom=AllCheck Guess=TCheck SCRF=Check GenChk UwB97XD/def2SVPP
  Freq\\Title: Geometrical optimization and frequency calculation\\0,1\
 C,-0.7806858796,0.7806858796,-0.7806858796\C,-0.7806858796,-0.78068587
 96,-0.7806858796\C,0.7806858796,-0.7806858796,-0.7806858796\C,0.780685
 8796,0.7806858796,-0.7806858796\C,-0.7806858796,0.7806858796,0.7806858
 796\C,0.7806858796,0.7806858796,0.7806858796\C,0.7806858796,-0.7806858
 796,0.7806858796\C,-0.7806858796,-0.7806858796,0.7806858796\H,-1.41473
 64662,1.4147364662,-1.4147364662\H,-1.4147364662,-1.4147364662,-1.4147
 364662\H,1.4147364662,-1.4147364662,-1.4147364662\H,1.4147364662,1.414
 7364662,-1.4147364662\H,-1.4147364662,1.4147364662,1.4147364662\H,1.41
 47364662,1.4147364662,1.4147364662\H,1.4147364662,-1.4147364662,1.4147
 364662\H,-1.4147364662,-1.4147364662,1.4147364662\\Version=ES64L-G16Re
 vC.01\State=1-A1G\HF=-309.1473551\S2=0.\S2-1=0.\S2A=0.\RMSD=6.414e-18\
 RMSF=3.035e-05\ZeroPoint=0.1360204\Thermal=0.1404416\ETot=-309.0069135
 \HTot=-309.0059693\GTot=-309.0364822\Dipole=0.,0.,0.\DipoleDeriv=0.022
 8919,-0.0580961,0.0580961,-0.0580961,0.0228919,-0.0580961,0.0580961,-0
 .0580961,0.0228919,0.0228919,0.0580961,0.058096,0.058096,0.0228919,0.0
 58096,0.058096,0.0580961,0.0228919,0.0228919,-0.0580961,-0.0580961,-0.
 0580961,0.0228919,0.0580961,-0.058096,0.058096,0.0228919,0.0228919,0.0
 58096,-0.058096,0.0580961,0.0228919,-0.058096,-0.0580961,-0.058096,0.0
 228919,0.0228919,-0.058096,-0.0580961,-0.058096,0.0228919,0.0580961,-0
 .058096,0.058096,0.0228919,0.0228919,0.0580961,0.0580961,0.058096,0.02
 28919,0.058096,0.0580961,0.0580961,0.0228919,0.0228919,-0.058096,0.058
 096,-0.058096,0.0228919,-0.058096,0.058096,-0.058096,0.0228919,0.02289
 19,0.058096,-0.058096,0.0580961,0.0228919,-0.0580961,-0.0580961,-0.058
 0961,0.0228919,-0.0228919,0.0796592,-0.0796592,0.0796592,-0.0228919,0.
 0796592,-0.0796592,0.0796592,-0.0228919,-0.0228919,-0.0796592,-0.07965
 92,-0.0796592,-0.0228919,-0.0796592,-0.0796592,-0.0796592,-0.0228919,-
 0.0228919,0.0796592,0.0796592,0.0796592,-0.0228919,-0.0796592,0.079659
 2,-0.0796592,-0.0228919,-0.0228919,-0.0796592,0.0796592,-0.0796592,-0.
 0228919,0.0796592,0.0796592,0.0796592,-0.0228919,-0.0228919,0.0796592,
 0.0796592,0.0796592,-0.0228919,-0.0796592,0.0796592,-0.0796592,-0.0228
 919,-0.0228919,-0.0796592,-0.0796592,-0.0796592,-0.0228919,-0.0796592,
 -0.0796592,-0.0796592,-0.0228919,-0.0228919,0.0796592,-0.0796592,0.079
 6592,-0.0228919,0.0796592,-0.0796592,0.0796592,-0.0228919,-0.0228919,-
 0.0796592,0.0796592,-0.0796592,-0.0228919,0.0796592,0.0796592,0.079659
 2,-0.0228919\Polar=66.6926681,0.,66.6926681,0.,0.,66.6926681\Quadrupol
 e=0.,0.,0.,0.,0.,0.\PG=OH [4C3(H1C1.C1H1)]\NImag=0\\0.48880598,-0.1061
 7640,0.48880598,0.10617640,-0.10617640,0.48880598,-0.04759722,0.002212
 47,-0.00105364,0.48880598,-0.00221247,-0.18267627,-0.00221247,0.106176
 40,0.48880598,-0.00105364,0.00221247,-0.04759722,0.10617640,0.10617640
 ,0.48880598,-0.03746453,0.02505028,0.00944819,-0.18267627,0.00221247,0
 .00221247,0.48880598,0.02505028,-0.03746453,-0.00944819,-0.00221247,-0
 .04759722,-0.00105364,-0.10617640,0.48880598,-0.00944819,0.00944819,0.
 01042265,-0.00221247,-0.00105364,-0.04759722,-0.10617640,0.10617640,0.
 48880598,-0.18267627,-0.00221247,0.00221247,-0.03746453,-0.02505028,0.
 00944819,-0.04759722,0.00221247,0.00105364,0.48880598,0.00221247,-0.04
 759722,0.00105364,-0.02505028,-0.03746453,0.00944819,-0.00221247,-0.18
 267627,0.00221247,0.10617640,0.48880598,-0.00221247,0.00105364,-0.0475
 9722,-0.00944819,-0.00944819,0.01042265,0.00105364,-0.00221247,-0.0475
 9722,-0.10617640,-0.10617640,0.48880598,-0.04759722,0.00105364,-0.0022
 1247,0.01042265,-0.00944819,-0.00944819,0.00002702,0.00207945,0.002079
 45,-0.03746453,0.00944819,0.02505028,0.48880598,0.00105364,-0.04759722
 ,0.00221247,0.00944819,-0.03746453,-0.02505028,0.00207945,0.00002702,-
 0.00207945,-0.00944819,0.01042265,0.00944819,-0.10617640,0.48880598,0.
 00221247,-0.00221247,-0.18267627,0.00944819,-0.02505028,-0.03746453,0.
 00207945,-0.00207945,0.00002702,0.02505028,-0.00944819,-0.03746453,-0.
 10617640,0.10617640,0.48880598,-0.03746453,-0.00944819,-0.02505028,0.0
 0002702,-0.00207945,-0.00207945,0.01042265,0.00944819,0.00944819,-0.04
 759722,-0.00105364,0.00221247,-0.18267627,-0.00221247,-0.00221247,0.48
 880598,0.00944819,0.01042265,0.00944819,-0.00207945,0.00002702,-0.0020
 7945,-0.00944819,-0.03746453,-0.02505028,-0.00105364,-0.04759722,0.002
 21247,0.00221247,-0.04759722,-0.00105364,0.10617640,0.48880598,-0.0250
 5028,-0.00944819,-0.03746453,-0.00207945,-0.00207945,0.00002702,-0.009
 44819,-0.02505028,-0.03746453,-0.00221247,-0.00221247,-0.18267627,0.00
 221247,-0.00105364,-0.04759722,0.10617640,0.10617640,0.48880598,0.0000
 2702,0.00207945,-0.00207945,-0.03746453,0.00944819,-0.02505028,-0.0475
 9722,0.00105364,0.00221247,0.01042265,-0.00944819,0.00944819,-0.037464
 53,0.02505028,-0.00944819,-0.04759722,-0.00221247,-0.00105364,0.488805
 98,0.00207945,0.00002702,0.00207945,-0.00944819,0.01042265,-0.00944819
 ,0.00105364,-0.04759722,-0.00221247,0.00944819,-0.03746453,0.02505028,
 0.02505028,-0.03746453,0.00944819,0.00221247,-0.18267627,0.00221247,-0
 .10617640,0.48880598,-0.00207945,0.00207945,0.00002702,-0.02505028,0.0
 0944819,-0.03746453,-0.00221247,0.00221247,-0.18267627,-0.00944819,0.0
 2505028,-0.03746453,0.00944819,-0.00944819,0.01042265,-0.00105364,-0.0
 0221247,-0.04759722,0.10617640,-0.10617640,0.48880598,0.01042265,0.009
 44819,-0.00944819,-0.04759722,-0.00105364,-0.00221247,-0.03746453,-0.0
 0944819,0.02505028,0.00002702,-0.00207945,0.00207945,-0.04759722,0.002
 21247,0.00105364,-0.03746453,-0.02505028,0.00944819,-0.18267627,-0.002
 21247,0.00221247,0.48880598,-0.00944819,-0.03746453,0.02505028,-0.0010
 5364,-0.04759722,-0.00221247,0.00944819,0.01042265,-0.00944819,-0.0020
 7945,0.00002702,0.00207945,-0.00221247,-0.18267627,0.00221247,-0.02505
 028,-0.03746453,0.00944819,0.00221247,-0.04759722,0.00105364,0.1061764
 0,0.48880598,0.00944819,0.02505028,-0.03746453,0.00221247,0.00221247,-
 0.18267627,0.02505028,0.00944819,-0.03746453,0.00207945,0.00207945,0.0
 0002702,0.00105364,-0.00221247,-0.04759722,-0.00944819,-0.00944819,0.0
 1042265,-0.00221247,0.00105364,-0.04759722,-0.10617640,-0.10617640,0.4
 8880598,-0.14404641,0.09264206,-0.09264206,0.00310229,-0.00204325,0.00
 464056,-0.00260573,0.00173370,0.00048974,-0.00181388,0.01555536,-0.015
 55536,0.00310229,-0.00464056,0.00204325,-0.00260573,-0.00048974,-0.001
 73370,-0.00037415,-0.00014511,0.00014511,-0.00121456,-0.00142529,0.001
 42529,0.14277210,0.09264206,-0.14404641,0.09264206,0.01555536,-0.00181
 388,0.01555536,0.00173370,-0.00260573,-0.00048974,-0.00204325,0.003102
 29,-0.00464056,-0.00464056,0.00310229,-0.00204325,-0.00142529,-0.00121
 456,-0.00142529,-0.00014511,-0.00037415,-0.00014511,-0.00048974,-0.002
 60573,0.00173370,-0.10266436,0.14277210,-0.09264206,0.09264206,-0.1440
 4641,0.00464056,-0.00204325,0.00310229,0.00142529,-0.00142529,-0.00121
 456,0.00204325,-0.00464056,0.00310229,-0.01555536,0.01555536,-0.001813
 88,-0.00173370,-0.00048974,-0.00260573,0.00014511,-0.00014511,-0.00037
 415,0.00048974,0.00173370,-0.00260573,0.10266436,-0.10266436,0.1427721
 0,0.00310229,0.00204325,0.00464056,-0.14404641,-0.09264206,-0.09264206
 ,-0.00181388,-0.01555536,-0.01555536,-0.00260573,-0.00173370,0.0004897
 4,-0.00121456,0.00142529,0.00142529,-0.00037415,0.00014511,0.00014511,
 -0.00260573,0.00048974,-0.00173370,0.00310229,0.00464056,0.00204325,0.
 00053905,-0.00081177,-0.00043684,0.14277210,-0.01555536,-0.00181388,-0
 .01555536,-0.09264206,-0.14404641,-0.09264206,0.00204325,0.00310229,0.
 00464056,-0.00173370,-0.00260573,0.00048974,0.00048974,-0.00260573,-0.
 00173370,0.00014511,-0.00037415,0.00014511,0.00142529,-0.00121456,0.00
 142529,0.00464056,0.00310229,0.00204325,0.00081177,0.00229080,0.000811
 77,0.10266436,0.14277210,0.00464056,0.00204325,0.00310229,-0.09264206,
 -0.09264206,-0.14404641,0.00204325,0.00464056,0.00310229,0.00142529,0.
 00142529,-0.00121456,0.00048974,-0.00173370,-0.00260573,0.00014511,0.0
 0014511,-0.00037415,-0.00173370,0.00048974,-0.00260573,-0.01555536,-0.
 01555536,-0.00181388,-0.00043684,-0.00081177,0.00053905,0.10266436,0.1
 0266436,0.14277210,-0.00260573,0.00173370,-0.00048974,-0.00181388,0.01
 555536,0.01555536,-0.14404641,0.09264206,0.09264206,0.00310229,-0.0020
 4325,-0.00464056,-0.00037415,-0.00014511,-0.00014511,-0.00121456,-0.00
 142529,-0.00142529,0.00310229,-0.00464056,-0.00204325,-0.00260573,-0.0
 0048974,0.00173370,-0.00000697,0.00088502,0.00046040,0.00229080,-0.000
 81177,-0.00081177,0.14277210,0.00173370,-0.00260573,0.00048974,-0.0020
 4325,0.00310229,0.00464056,0.09264206,-0.14404641,-0.09264206,0.015555
 36,-0.00181388,-0.01555536,-0.00014511,-0.00037415,0.00014511,-0.00048
 974,-0.00260573,-0.00173370,-0.00464056,0.00310229,0.00204325,-0.00142
 529,-0.00121456,0.00142529,0.00088502,-0.00000697,-0.00046040,0.000811
 77,0.00053905,-0.00043684,-0.10266436,0.14277210,-0.00142529,0.0014252
 9,-0.00121456,-0.00204325,0.00464056,0.00310229,0.09264206,-0.09264206
 ,-0.14404641,-0.00464056,0.00204325,0.00310229,-0.00014511,0.00014511,
 -0.00037415,-0.00048974,-0.00173370,-0.00260573,0.01555536,-0.01555536
 ,-0.00181388,0.00173370,0.00048974,-0.00260573,-0.00046040,0.00046040,
 0.00041527,0.00081177,-0.00043684,0.00053905,-0.10266436,0.10266436,0.
 14277210,-0.00181388,-0.01555536,0.01555536,-0.00260573,-0.00173370,-0
 .00048974,0.00310229,0.00204325,-0.00464056,-0.14404641,-0.09264206,0.
 09264206,-0.00260573,0.00048974,0.00173370,0.00310229,0.00464056,-0.00
 204325,-0.00121456,0.00142529,-0.00142529,-0.00037415,0.00014511,-0.00
 014511,0.00229080,0.00081177,-0.00081177,-0.00000697,-0.00088502,0.000
 46040,0.00053905,-0.00081177,0.00043684,0.14277210,0.00204325,0.003102
 29,-0.00464056,-0.00173370,-0.00260573,-0.00048974,-0.01555536,-0.0018
 1388,0.01555536,-0.09264206,-0.14404641,0.09264206,0.00142529,-0.00121
 456,-0.00142529,0.00464056,0.00310229,-0.00204325,0.00048974,-0.002605
 73,0.00173370,0.00014511,-0.00037415,-0.00014511,-0.00081177,0.0005390
 5,0.00043684,-0.00088502,-0.00000697,0.00046040,0.00081177,0.00229080,
 -0.00081177,0.10266436,0.14277210,-0.00204325,-0.00464056,0.00310229,-
 0.00142529,-0.00142529,-0.00121456,-0.00464056,-0.00204325,0.00310229,
 0.09264206,0.09264206,-0.14404641,0.00173370,-0.00048974,-0.00260573,0
 .01555536,0.01555536,-0.00181388,-0.00048974,0.00173370,-0.00260573,-0
 .00014511,-0.00014511,-0.00037415,0.00081177,0.00043684,0.00053905,-0.
 00046040,-0.00046040,0.00041527,0.00043684,0.00081177,0.00053905,-0.10
 266436,-0.10266436,0.14277210,0.00310229,-0.00464056,-0.00204325,-0.00
 121456,-0.00142529,-0.00142529,-0.00037415,-0.00014511,-0.00014511,-0.
 00260573,-0.00048974,0.00173370,-0.14404641,0.09264206,0.09264206,-0.0
 0181388,0.01555536,0.01555536,-0.00260573,0.00173370,-0.00048974,0.003
 10229,-0.00204325,-0.00464056,0.00053905,0.00043684,0.00081177,0.00041
 527,-0.00046040,-0.00046040,-0.00008643,0.00015534,0.00015534,-0.00000
 697,0.00046040,0.00088502,0.14277210,-0.00464056,0.00310229,0.00204325
 ,-0.00048974,-0.00260573,-0.00173370,-0.00014511,-0.00037415,0.0001451
 1,-0.00142529,-0.00121456,0.00142529,0.09264206,-0.14404641,-0.0926420
 6,-0.00204325,0.00310229,0.00464056,0.00173370,-0.00260573,0.00048974,
 0.01555536,-0.00181388,-0.01555536,0.00043684,0.00053905,-0.00081177,0
 .00046040,-0.00000697,-0.00088502,0.00015534,-0.00008643,-0.00015534,-
 0.00046040,0.00041527,0.00046040,-0.10266436,0.14277210,0.01555536,-0.
 01555536,-0.00181388,-0.00048974,-0.00173370,-0.00260573,-0.00014511,0
 .00014511,-0.00037415,0.00173370,0.00048974,-0.00260573,0.09264206,-0.
 09264206,-0.14404641,-0.00204325,0.00464056,0.00310229,-0.00142529,0.0
 0142529,-0.00121456,-0.00464056,0.00204325,0.00310229,-0.00081177,0.00
 081177,0.00229080,0.00046040,-0.00088502,-0.00000697,0.00015534,-0.000
 15534,-0.00008643,0.00088502,-0.00046040,-0.00000697,-0.10266436,0.102
 66436,0.14277210,-0.00260573,0.00048974,-0.00173370,-0.00037415,0.0001
 4511,0.00014511,-0.00121456,0.00142529,0.00142529,0.00310229,0.0046405
 6,0.00204325,-0.00181388,-0.01555536,-0.01555536,-0.14404641,-0.092642
 06,-0.09264206,0.00310229,0.00204325,0.00464056,-0.00260573,-0.0017337
 0,0.00048974,-0.00000697,-0.00046040,-0.00088502,-0.00008643,-0.000155
 34,-0.00015534,0.00041527,0.00046040,0.00046040,0.00053905,-0.00043684
 ,-0.00081177,0.00229080,0.00081177,0.00081177,0.14277210,0.00142529,-0
 .00121456,0.00142529,0.00014511,-0.00037415,0.00014511,0.00048974,-0.0
 0260573,-0.00173370,0.00464056,0.00310229,0.00204325,0.00204325,0.0031
 0229,0.00464056,-0.09264206,-0.14404641,-0.09264206,-0.01555536,-0.001
 81388,-0.01555536,-0.00173370,-0.00260573,0.00048974,0.00046040,0.0004
 1527,0.00046040,-0.00015534,-0.00008643,-0.00015534,-0.00046040,-0.000
 00697,-0.00088502,-0.00043684,0.00053905,-0.00081177,-0.00081177,0.000
 53905,-0.00043684,0.10266436,0.14277210,-0.00173370,0.00048974,-0.0026
 0573,0.00014511,0.00014511,-0.00037415,0.00048974,-0.00173370,-0.00260
 573,-0.01555536,-0.01555536,-0.00181388,0.00204325,0.00464056,0.003102
 29,-0.09264206,-0.09264206,-0.14404641,0.00464056,0.00204325,0.0031022
 9,0.00142529,0.00142529,-0.00121456,-0.00088502,-0.00046040,-0.0000069
 7,-0.00015534,-0.00015534,-0.00008643,-0.00046040,-0.00088502,-0.00000
 697,0.00081177,0.00081177,0.00229080,-0.00081177,-0.00043684,0.0005390
 5,0.10266436,0.10266436,0.14277210,-0.00037415,-0.00014511,0.00014511,
 -0.00260573,-0.00048974,-0.00173370,0.00310229,-0.00464056,0.00204325,
 -0.00121456,-0.00142529,0.00142529,-0.00260573,0.00173370,0.00048974,0
 .00310229,-0.00204325,0.00464056,-0.14404641,0.09264206,-0.09264206,-0
 .00181388,0.01555536,-0.01555536,-0.00008643,0.00015534,-0.00015534,-0
 .00000697,0.00046040,-0.00088502,0.00053905,0.00043684,-0.00081177,0.0
 0041527,-0.00046040,0.00046040,-0.00000697,0.00088502,-0.00046040,0.00
 053905,0.00081177,-0.00043684,0.14277210,-0.00014511,-0.00037415,-0.00
 014511,-0.00142529,-0.00121456,-0.00142529,-0.00464056,0.00310229,-0.0
 0204325,-0.00048974,-0.00260573,0.00173370,0.00173370,-0.00260573,-0.0
 0048974,0.01555536,-0.00181388,0.01555536,0.09264206,-0.14404641,0.092
 64206,-0.00204325,0.00310229,-0.00464056,0.00015534,-0.00008643,0.0001
 5534,-0.00046040,0.00041527,-0.00046040,0.00043684,0.00053905,0.000811
 77,0.00046040,-0.00000697,0.00088502,0.00088502,-0.00000697,0.00046040
 ,-0.00081177,0.00229080,-0.00081177,-0.10266436,0.14277210,0.00014511,
 -0.00014511,-0.00037415,-0.00173370,-0.00048974,-0.00260573,-0.0155553
 6,0.01555536,-0.00181388,0.00048974,0.00173370,-0.00260573,0.00142529,
 -0.00142529,-0.00121456,0.00464056,-0.00204325,0.00310229,-0.09264206,
 0.09264206,-0.14404641,0.00204325,-0.00464056,0.00310229,-0.00015534,0
 .00015534,-0.00008643,-0.00088502,0.00046040,-0.00000697,0.00081177,-0
 .00081177,0.00229080,-0.00046040,0.00088502,-0.00000697,0.00046040,-0.
 00046040,0.00041527,-0.00043684,0.00081177,0.00053905,0.10266436,-0.10
 266436,0.14277210,-0.00121456,0.00142529,-0.00142529,0.00310229,0.0046
 4056,-0.00204325,-0.00260573,0.00048974,0.00173370,-0.00037415,0.00014
 511,-0.00014511,0.00310229,0.00204325,-0.00464056,-0.00260573,-0.00173
 370,-0.00048974,-0.00181388,-0.01555536,0.01555536,-0.14404641,-0.0926
 4206,0.09264206,0.00041527,0.00046040,-0.00046040,0.00053905,-0.000436
 84,0.00081177,-0.00000697,-0.00046040,0.00088502,-0.00008643,-0.000155
 34,0.00015534,0.00053905,-0.00081177,0.00043684,-0.00000697,-0.0008850
 2,0.00046040,0.00229080,0.00081177,-0.00081177,0.14277210,0.00048974,-
 0.00260573,0.00173370,0.00464056,0.00310229,-0.00204325,0.00142529,-0.
 00121456,-0.00142529,0.00014511,-0.00037415,-0.00014511,-0.01555536,-0
 .00181388,0.01555536,-0.00173370,-0.00260573,-0.00048974,0.00204325,0.
 00310229,-0.00464056,-0.09264206,-0.14404641,0.09264206,-0.00046040,-0
 .00000697,0.00088502,-0.00043684,0.00053905,0.00081177,0.00046040,0.00
 041527,-0.00046040,-0.00015534,-0.00008643,0.00015534,0.00081177,0.002
 29080,-0.00081177,-0.00088502,-0.00000697,0.00046040,-0.00081177,0.000
 53905,0.00043684,0.10266436,0.14277210,-0.00048974,0.00173370,-0.00260
 573,0.01555536,0.01555536,-0.00181388,0.00173370,-0.00048974,-0.002605
 73,-0.00014511,-0.00014511,-0.00037415,-0.00464056,-0.00204325,0.00310
 229,-0.00142529,-0.00142529,-0.00121456,-0.00204325,-0.00464056,0.0031
 0229,0.09264206,0.09264206,-0.14404641,0.00046040,0.00088502,-0.000006
 97,-0.00081177,-0.00081177,0.00229080,0.00088502,0.00046040,-0.0000069
 7,0.00015534,0.00015534,-0.00008643,0.00043684,0.00081177,0.00053905,-
 0.00046040,-0.00046040,0.00041527,0.00081177,0.00043684,0.00053905,-0.
 10266436,-0.10266436,0.14277210\\-0.00002861,0.00002861,-0.00002861,-0
 .00002861,-0.00002861,-0.00002861,0.00002861,-0.00002861,-0.00002861,0
 .00002861,0.00002861,-0.00002861,-0.00002861,0.00002861,0.00002861,0.0
 0002861,0.00002861,0.00002861,0.00002861,-0.00002861,0.00002861,-0.000
 02861,-0.00002861,0.00002861,0.00003199,-0.00003199,0.00003199,0.00003
 199,0.00003199,0.00003199,-0.00003199,0.00003199,0.00003199,-0.0000319
 9,-0.00003199,0.00003199,0.00003199,-0.00003199,-0.00003199,-0.0000319
 9,-0.00003199,-0.00003199,-0.00003199,0.00003199,-0.00003199,0.0000319
 9,0.00003199,-0.00003199\\\@
 The archive entry for this job was punched.


 A MAN THINKING OR WORKING IS ALWAYS ALONE, 
 LET HIM BE WHERE HE WILL.

                                    -- THOREAU
 Job cpu time:       0 days  0 hours 11 minutes  3.7 seconds.
 Elapsed time:       0 days  0 hours  0 minutes 28.4 seconds.
 File lengths (MBytes):  RWF=     23 Int=      0 D2E=      0 Chk=      3 Scr=      1
 Normal termination of Gaussian 16 at Fri Sep 12 21:54:46 2025.
