 argument  1 = NWChem_NH2COH_optfreq.nw
                                         
                                         


             Northwest Computational Chemistry Package (NWChem) 7.0.0
             --------------------------------------------------------


                    Environmental Molecular Sciences Laboratory
                       Pacific Northwest National Laboratory
                                Richland, WA 99352

                              Copyright (c) 1994-2019
                       Pacific Northwest National Laboratory
                            Battelle Memorial Institute

             NWChem is an open-source computational chemistry package
                        distributed under the terms of the
                      Educational Community License (ECL) 2.0
             A copy of the license is included with this distribution
                              in the LICENSE.TXT file

                                  ACKNOWLEDGMENT
                                  --------------

            This software and its documentation were developed at the
            EMSL at Pacific Northwest National Laboratory, a multiprogram
            national laboratory, operated for the U.S. Department of Energy
            by Battelle under Contract Number DE-AC05-76RL01830. Support
            for this work was provided by the Department of Energy Office
            of Biological and Environmental Research, Office of Basic
            Energy Sciences, and the Office of Advanced Scientific Computing.


           Job information
           ---------------

    hostname        = localhost.localdomain
    program         = nwchem
    date            = Wed May  6 20:39:15 2020

    compiled        = Wed_May_06_20:19:19_2020
    source          = /nwchem7
    nwchem branch   = 7.0.0
    nwchem revision = 2c9a1c7c
    ga revision     = 5.7.1
    use scalapack   = F
    input           = NWChem_NH2COH_optfreq.nw
    prefix          = NWChem_NH2COH_optfreq.
    data base       = ./NWChem_NH2COH_optfreq.db
    status          = startup
    nproc           =        1
    time left       =     -1s



           Memory information
           ------------------

    heap     =   13107194 doubles =    100.0 Mbytes
    stack    =   13107199 doubles =    100.0 Mbytes
    global   =   26214400 doubles =    200.0 Mbytes (distinct from heap & stack)
    total    =   52428793 doubles =    400.0 Mbytes
    verify   = yes
    hardfail = no 


           Directory information
           ---------------------

  0 permanent = .
  0 scratch   = .




                                NWChem Input Module
                                -------------------



 Scaling coordinates for geometry "geometry" by  1.889725989
 (inverse scale =  0.529177249)

 CS  symmetry detected

          ------
          auto-z
          ------
  no constraints, skipping    0.0000000000000000     
  no constraints, skipping    0.0000000000000000     


                             Geometry "geometry" -> ""
                             -------------------------

 Output coordinates in angstroms (scale by  1.889725989 to convert to a.u.)

  No.       Tag          Charge          X              Y              Z
 ---- ---------------- ---------- -------------- -------------- --------------
    1 C                    6.0000     0.39016549    -0.15291213     0.00000000
    2 H                    1.0000     1.49813015    -0.09910973     0.00000000
    3 O                    8.0000    -0.22207016    -1.20192666     0.00000000
    4 N                    7.0000    -0.17911378     1.07991937     0.00000000
    5 H                    1.0000    -1.18473864     1.15369187     0.00000000
    6 H                    1.0000     0.37597323     1.91886833     0.00000000

      Atomic Mass 
      ----------- 

      C                 12.000000
      H                  1.007825
      O                 15.994910
      N                 14.003070


 Effective nuclear repulsion energy (a.u.)      71.1534510890

            Nuclear Dipole moment (a.u.) 
            ----------------------------
        X                 Y               Z
 ---------------- ---------------- ----------------
     0.0000000000    -0.0000000000     0.0000000000

      Symmetry information
      --------------------

 Group name             Cs        
 Group number              2
 Group order               2
 No. of unique centers     6

      Symmetry unique atoms

     1    2    3    4    5    6



                                Z-matrix (autoz)
                                -------- 

 Units are Angstrom for bonds and degrees for angles

      Type          Name      I     J     K     L     M      Value
      ----------- --------  ----- ----- ----- ----- ----- ----------
    1 Stretch                  1     2                       1.10927
    2 Stretch                  1     3                       1.21460
    3 Stretch                  1     4                       1.35792
    4 Stretch                  4     5                       1.00833
    5 Stretch                  4     6                       1.00596
    6 Bend                     1     4     5               118.98157
    7 Bend                     1     4     6               121.72368
    8 Bend                     2     1     3               123.04917
    9 Bend                     2     1     4               112.00579
   10 Bend                     3     1     4               124.94504
   11 Bend                     5     4     6               119.29475
   12 Torsion                  2     1     4     5         180.00000
   13 Torsion                  2     1     4     6          -0.00000
   14 Torsion                  3     1     4     5           0.00000
   15 Torsion                  3     1     4     6         180.00000


            XYZ format geometry
            -------------------
     6
 geometry
 C                     0.39016549    -0.15291213     0.00000000
 H                     1.49813015    -0.09910973     0.00000000
 O                    -0.22207016    -1.20192666     0.00000000
 N                    -0.17911378     1.07991937     0.00000000
 H                    -1.18473864     1.15369187     0.00000000
 H                     0.37597323     1.91886833     0.00000000

 ==============================================================================
                                internuclear distances
 ------------------------------------------------------------------------------
       center one      |      center two      | atomic units |  angstroms
 ------------------------------------------------------------------------------
    2 H                |   1 C                |     2.09622  |     1.10927
    3 O                |   1 C                |     2.29527  |     1.21460
    4 N                |   1 C                |     2.56610  |     1.35792
    5 H                |   4 N                |     1.90546  |     1.00833
    6 H                |   4 N                |     1.90099  |     1.00596
 ------------------------------------------------------------------------------
                         number of included internuclear distances:          5
 ==============================================================================



 ==============================================================================
                                 internuclear angles
 ------------------------------------------------------------------------------
        center 1       |       center 2       |       center 3       |  degrees
 ------------------------------------------------------------------------------
    2 H                |   1 C                |   3 O                |   123.05
    2 H                |   1 C                |   4 N                |   112.01
    3 O                |   1 C                |   4 N                |   124.95
    1 C                |   4 N                |   5 H                |   118.98
    1 C                |   4 N                |   6 H                |   121.72
    5 H                |   4 N                |   6 H                |   119.29
 ------------------------------------------------------------------------------
                            number of included internuclear angles:          6
 ==============================================================================





 Summary of "ao basis" -> "" (cartesian)
 ------------------------------------------------------------------------------
       Tag                 Description            Shells   Functions and Types
 ---------------- ------------------------------  ------  ---------------------
 *                           6-31G*                   on all atoms 




                           NWChem Geometry Optimization
                           ----------------------------


  no constraints, skipping    0.0000000000000000     
 maximum gradient threshold         (gmax) =   0.000450
 rms gradient threshold             (grms) =   0.000300
 maximum cartesian step threshold   (xmax) =   0.001800
 rms cartesian step threshold       (xrms) =   0.001200
 fixed trust radius                (trust) =   0.300000
 maximum step size to saddle      (sadstp) =   0.100000
 energy precision                  (eprec) =   5.0D-06
 maximum number of steps          (nptopt) =   20
 initial hessian option           (inhess) =    0
 line search option               (linopt) =    1
 hessian update option            (modupd) =    1
 saddle point option              (modsad) =    0
 initial eigen-mode to follow     (moddir) =    0
 initial variable to follow       (vardir) =    0
 follow first negative mode     (firstneg) =    T
 apply conjugacy                    (opcg) =    F
 source of zmatrix                         =   autoz   


          -------------------
          Energy Minimization
          -------------------


 Names of Z-matrix variables 
    1              2              3              4              5         
    6              7              8              9             10         
   11             12             13             14             15         

 Variables with the same non-blank name are constrained to be equal


 Using diagonal initial Hessian 
 Scaling for Hessian diagonals: bonds = 1.00  angles = 0.25  torsions = 0.10

          --------
          Step   0
          --------


                         Geometry "geometry" -> "geometry"
                         ---------------------------------

 Output coordinates in angstroms (scale by  1.889725989 to convert to a.u.)

  No.       Tag          Charge          X              Y              Z
 ---- ---------------- ---------- -------------- -------------- --------------
    1 C                    6.0000     0.39016549    -0.15291213     0.00000000
    2 H                    1.0000     1.49813015    -0.09910973     0.00000000
    3 O                    8.0000    -0.22207016    -1.20192666     0.00000000
    4 N                    7.0000    -0.17911378     1.07991937     0.00000000
    5 H                    1.0000    -1.18473864     1.15369187     0.00000000
    6 H                    1.0000     0.37597323     1.91886833     0.00000000

      Atomic Mass 
      ----------- 

      C                 12.000000
      H                  1.007825
      O                 15.994910
      N                 14.003070


 Effective nuclear repulsion energy (a.u.)      71.1534510890

            Nuclear Dipole moment (a.u.) 
            ----------------------------
        X                 Y               Z
 ---------------- ---------------- ----------------
     0.0000000000    -0.0000000000     0.0000000000

      Symmetry information
      --------------------

 Group name             Cs        
 Group number              2
 Group order               2
 No. of unique centers     6

      Symmetry unique atoms

     1    2    3    4    5    6


                                 NWChem DFT Module
                                 -----------------


                      Basis "ao basis" -> "ao basis" (cartesian)
                      -----
  C (Carbon)
  ----------
            Exponent  Coefficients 
       -------------- ---------------------------------------------------------
  1 S  3.04752490E+03  0.001835
  1 S  4.57369510E+02  0.014037
  1 S  1.03948690E+02  0.068843
  1 S  2.92101550E+01  0.232184
  1 S  9.28666300E+00  0.467941
  1 S  3.16392700E+00  0.362312

  2 S  7.86827240E+00 -0.119332
  2 S  1.88128850E+00 -0.160854
  2 S  5.44249300E-01  1.143456

  3 P  7.86827240E+00  0.068999
  3 P  1.88128850E+00  0.316424
  3 P  5.44249300E-01  0.744308

  4 S  1.68714400E-01  1.000000

  5 P  1.68714400E-01  1.000000

  6 D  8.00000000E-01  1.000000

  H (Hydrogen)
  ------------
            Exponent  Coefficients 
       -------------- ---------------------------------------------------------
  1 S  1.87311370E+01  0.033495
  1 S  2.82539370E+00  0.234727
  1 S  6.40121700E-01  0.813757

  2 S  1.61277800E-01  1.000000

  O (Oxygen)
  ----------
            Exponent  Coefficients 
       -------------- ---------------------------------------------------------
  1 S  5.48467170E+03  0.001831
  1 S  8.25234950E+02  0.013950
  1 S  1.88046960E+02  0.068445
  1 S  5.29645000E+01  0.232714
  1 S  1.68975700E+01  0.470193
  1 S  5.79963530E+00  0.358521

  2 S  1.55396160E+01 -0.110778
  2 S  3.59993360E+00 -0.148026
  2 S  1.01376180E+00  1.130767

  3 P  1.55396160E+01  0.070874
  3 P  3.59993360E+00  0.339753
  3 P  1.01376180E+00  0.727159

  4 S  2.70005800E-01  1.000000

  5 P  2.70005800E-01  1.000000

  6 D  8.00000000E-01  1.000000

  N (Nitrogen)
  ------------
            Exponent  Coefficients 
       -------------- ---------------------------------------------------------
  1 S  4.17351100E+03  0.001835
  1 S  6.27457900E+02  0.013995
  1 S  1.42902100E+02  0.068587
  1 S  4.02343300E+01  0.232241
  1 S  1.28202100E+01  0.469070
  1 S  4.39043700E+00  0.360455

  2 S  1.16263580E+01 -0.114961
  2 S  2.71628000E+00 -0.169118
  2 S  7.72218000E-01  1.145852

  3 P  1.16263580E+01  0.067580
  3 P  2.71628000E+00  0.323907
  3 P  7.72218000E-01  0.740895

  4 S  2.12031300E-01  1.000000

  5 P  2.12031300E-01  1.000000

  6 D  8.00000000E-01  1.000000



 Summary of "ao basis" -> "ao basis" (cartesian)
 ------------------------------------------------------------------------------
       Tag                 Description            Shells   Functions and Types
 ---------------- ------------------------------  ------  ---------------------
 C                           6-31G*                  6       15   3s2p1d
 H                           6-31G*                  2        2   2s
 O                           6-31G*                  6       15   3s2p1d
 N                           6-31G*                  6       15   3s2p1d




 Summary of "ao basis" -> "ao basis" (cartesian)
 ------------------------------------------------------------------------------
       Tag                 Description            Shells   Functions and Types
 ---------------- ------------------------------  ------  ---------------------
 C                           6-31G*                  6       15   3s2p1d
 H                           6-31G*                  2        2   2s
 O                           6-31G*                  6       15   3s2p1d
 N                           6-31G*                  6       15   3s2p1d


      Symmetry analysis of basis
      --------------------------

        a'         39
        a"         12

  Caching 1-el integrals 

            General Information
            -------------------
          SCF calculation type: DFT
          Wavefunction type:  closed shell.
          No. of atoms     :     6
          No. of electrons :    24
           Alpha electrons :    12
            Beta electrons :    12
          Charge           :     0
          Spin multiplicity:     1
          Use of symmetry is: on ; symmetry adaption is: on 
          Maximum number of iterations:  30
          AO basis - number of functions:    51
                     number of shells:    24
          Convergence on energy requested:  1.00D-06
          Convergence on density requested:  1.00D-05
          Convergence on gradient requested:  5.00D-04

              XC Information
              --------------
                         B3LYP Method XC Potential
                     Hartree-Fock (Exact) Exchange  0.200          
                        Slater Exchange Functional  0.800 local    
                    Becke 1988 Exchange Functional  0.720 non-local
              Lee-Yang-Parr Correlation Functional  0.810          
                  VWN I RPA Correlation Functional  0.190 local    

             Grid Information
             ----------------
          Grid used for XC integration:  medium    
          Radial quadrature: Mura-Knowles        
          Angular quadrature: Lebedev. 
          Tag              B.-S. Rad. Rad. Pts. Rad. Cut. Ang. Pts.
          ---              ---------- --------- --------- ---------
          C                   0.70       49           7.0       434
          H                   0.35       45           8.0       434
          O                   0.60       49           8.0       434
          N                   0.65       49           7.0       434
          Grid pruning is: on 
          Number of quadrature shells:   282
          Spatial weights used:  Erf1

          Convergence Information
          -----------------------
          Convergence aids based upon iterative change in 
          total energy or number of iterations. 
          Levelshifting, if invoked, occurs when the 
          HOMO/LUMO gap drops below (HL_TOL):  1.00D-02
          DIIS, if invoked, will attempt to extrapolate 
          using up to (NFOCK): 10 stored Fock matrices.

                    Damping( 0%)  Levelshifting(0.5)       DIIS
                  --------------- ------------------- ---------------
          dE  on:    start            ASAP                start   
          dE off:    2 iters         30 iters            30 iters 


      Screening Tolerance Information
      -------------------------------
          Density screening/tol_rho:  1.00D-10
          AO Gaussian exp screening on grid/accAOfunc:  14
          CD Gaussian exp screening on grid/accCDfunc:  20
          XC Gaussian exp screening on grid/accXCfunc:  20
          Schwarz screening/accCoul:  1.00D-08


      Superposition of Atomic Density Guess
      -------------------------------------

 Sum of atomic energies:        -168.20304224

      Non-variational initial energy
      ------------------------------

 Total energy =    -169.638696
 1-e energy   =    -369.424919
 2-e energy   =     128.632772
 HOMO         =      -0.355521
 LUMO         =       0.053201


      Symmetry analysis of molecular orbitals - initial
      -------------------------------------------------

  Numbering of irreducible representations: 

     1 a'          2 a"      

  Orbital symmetries:

     1 a'          2 a'          3 a'          4 a'          5 a'      
     6 a'          7 a'          8 a'          9 a"         10 a'      
    11 a'         12 a"         13 a"         14 a'         15 a'      
    16 a'         17 a'         18 a'         19 a'         20 a"      
    21 a'         22 a'      

   Time after variat. SCF:      0.2
   Time prior to 1st pass:      0.2

 Integral file          = ./NWChem_NH2COH_optfreq.aoints.0
 Record size in doubles =  65536        No. of integs per rec  =  43688
 Max. records in memory =     20        Max. records in file   = 219458
 No. of bits per label  =      8        No. of bits per value  =     64


 #quartets = 4.426D+04 #integrals = 5.002D+05 #direct =  0.0% #cached =100.0%


 Grid_pts file          = ./NWChem_NH2COH_optfreq.gridpts.0
 Record size in doubles =  12289        No. of grid_pts per rec  =   3070
 Max. records in memory =     45        Max. recs in file   =   1170355


           Memory utilization after 1st SCF pass: 
           Heap Space remaining (MW):       11.24            11240890
          Stack Space remaining (MW):       13.11            13106764

   convergence    iter        energy       DeltaE   RMS-Dens  Diis-err    time
 ---------------- ----- ----------------- --------- --------- ---------  ------
 d= 0,ls=0.0,diis     1   -169.7786473819 -2.41D+02  4.50D-02  9.79D-01     0.6
 d= 0,ls=0.0,diis     2   -169.4114863371  3.67D-01  3.32D-02  4.74D+00     0.8
 d= 0,ls=0.0,diis     3   -169.8830474663 -4.72D-01  4.36D-03  5.72D-02     0.9
 d= 0,ls=0.0,diis     4   -169.8857472702 -2.70D-03  1.97D-03  2.88D-02     1.1
 d= 0,ls=0.0,diis     5   -169.8887679237 -3.02D-03  2.47D-04  3.28D-04     1.3
  Resetting Diis
 d= 0,ls=0.0,diis     6   -169.8888025109 -3.46D-05  7.32D-05  2.16D-05     1.5
 d= 0,ls=0.0,diis     7   -169.8888048900 -2.38D-06  5.81D-05  1.45D-06     1.6
 d= 0,ls=0.0,diis     8   -169.8888045141  3.76D-07  3.22D-05  5.38D-06     1.8
 d= 0,ls=0.0,diis     9   -169.8888050493 -5.35D-07  3.73D-06  1.08D-07     2.0


         Total DFT energy =     -169.888805049347
      One electron energy =     -371.838211873625
           Coulomb energy =      152.837271431290
    Exchange-Corr. energy =      -22.041315696023
 Nuclear repulsion energy =       71.153451089010

 Numeric. integr. density =       24.000000750161

     Total iterative time =      1.8s



                  Occupations of the irreducible representations
                  ----------------------------------------------

                     irrep           alpha         beta
                     --------     --------     --------
                     a'               10.0         10.0
                     a"                2.0          2.0


                       DFT Final Molecular Orbital Analysis
                       ------------------------------------

 Vector    1  Occ=2.000000D+00  E=-1.911622D+01  Symmetry=a'
              MO Center= -2.2D-01, -1.2D+00, -5.6D-32, r^2= 1.5D-02
   Bfn.  Coefficient  Atom+Function         Bfn.  Coefficient  Atom+Function  
  ----- ------------  ---------------      ----- ------------  ---------------
    18      0.992767  3 O  s                 19      0.025763  3 O  s          

 Vector    2  Occ=2.000000D+00  E=-1.436537D+01  Symmetry=a'
              MO Center= -1.8D-01,  1.1D+00,  2.0D-20, r^2= 2.0D-02
   Bfn.  Coefficient  Atom+Function         Bfn.  Coefficient  Atom+Function  
  ----- ------------  ---------------      ----- ------------  ---------------
    33      0.992592  4 N  s                 34      0.034868  4 N  s          

 Vector    3  Occ=2.000000D+00  E=-1.028879D+01  Symmetry=a'
              MO Center=  3.9D-01, -1.5D-01, -2.3D-20, r^2= 2.8D-02
   Bfn.  Coefficient  Atom+Function         Bfn.  Coefficient  Atom+Function  
  ----- ------------  ---------------      ----- ------------  ---------------
     1      0.992783  1 C  s                  2      0.048229  1 C  s          

 Vector    4  Occ=2.000000D+00  E=-1.032267D+00  Symmetry=a'
              MO Center= -4.3D-02, -6.7D-01,  1.3D-17, r^2= 7.9D-01
   Bfn.  Coefficient  Atom+Function         Bfn.  Coefficient  Atom+Function  
  ----- ------------  ---------------      ----- ------------  ---------------
    19      0.388740  3 O  s                 23      0.361375  3 O  s          
     2      0.257915  1 C  s                 18     -0.179187  3 O  s          
    21      0.137527  3 O  py                 1     -0.130674  1 C  s          
    34      0.128177  4 N  s                 38      0.120516  4 N  s          
     4     -0.112742  1 C  py                 3     -0.103030  1 C  px         

 Vector    5  Occ=2.000000D+00  E=-9.109810D-01  Symmetry=a'
              MO Center= -9.7D-02,  7.4D-01, -9.7D-18, r^2= 1.2D+00
   Bfn.  Coefficient  Atom+Function         Bfn.  Coefficient  Atom+Function  
  ----- ------------  ---------------      ----- ------------  ---------------
    38      0.401100  4 N  s                 34      0.396834  4 N  s          
     4      0.211706  1 C  py                19     -0.189274  3 O  s          
    33     -0.189132  4 N  s                 23     -0.164996  3 O  s          
    50      0.121630  6 H  s                 48      0.112543  5 H  s          
    18      0.084434  3 O  s                  2      0.067311  1 C  s          

 Vector    6  Occ=2.000000D+00  E=-6.277383D-01  Symmetry=a'
              MO Center=  1.5D-01,  5.3D-01,  8.9D-17, r^2= 1.7D+00
   Bfn.  Coefficient  Atom+Function         Bfn.  Coefficient  Atom+Function  
  ----- ------------  ---------------      ----- ------------  ---------------
     2      0.287222  1 C  s                 36     -0.253388  4 N  py         
    35      0.236319  4 N  px                 6      0.206154  1 C  s          
     4      0.168646  1 C  py                48     -0.166382  5 H  s          
    16      0.159423  2 H  s                 23     -0.149551  3 O  s          
    19     -0.141182  3 O  s                 38     -0.134834  4 N  s          

 Vector    7  Occ=2.000000D+00  E=-5.593123D-01  Symmetry=a'
              MO Center=  1.4D-02,  9.7D-01,  2.3D-17, r^2= 1.4D+00
   Bfn.  Coefficient  Atom+Function         Bfn.  Coefficient  Atom+Function  
  ----- ------------  ---------------      ----- ------------  ---------------
    36      0.359906  4 N  py                35      0.277264  4 N  px         
    50      0.254312  6 H  s                  3      0.211810  1 C  px         
    40      0.172711  4 N  py                39      0.142557  4 N  px         
    48     -0.132162  5 H  s                 51      0.123317  6 H  s          
    23      0.109395  3 O  s                  4     -0.099246  1 C  py         

 Vector    8  Occ=2.000000D+00  E=-4.797080D-01  Symmetry=a'
              MO Center=  1.7D-01,  9.5D-02,  9.0D-17, r^2= 2.0D+00
   Bfn.  Coefficient  Atom+Function         Bfn.  Coefficient  Atom+Function  
  ----- ------------  ---------------      ----- ------------  ---------------
    35      0.318295  4 N  px                 3     -0.274076  1 C  px         
     4      0.221569  1 C  py                20     -0.219370  3 O  px         
    23      0.209334  3 O  s                 16     -0.195864  2 H  s          
    48     -0.189265  5 H  s                 39      0.172734  4 N  px         
     6     -0.151751  1 C  s                 17     -0.133847  2 H  s          

 Vector    9  Occ=2.000000D+00  E=-4.096632D-01  Symmetry=a'
              MO Center= -9.3D-02, -9.3D-01,  1.3D-15, r^2= 1.5D+00
   Bfn.  Coefficient  Atom+Function         Bfn.  Coefficient  Atom+Function  
  ----- ------------  ---------------      ----- ------------  ---------------
    21      0.457505  3 O  py                23     -0.370760  3 O  s          
     3     -0.253607  1 C  px                25      0.245970  3 O  py         
     4     -0.237649  1 C  py                20      0.190523  3 O  px         
    19     -0.169145  3 O  s                 17     -0.130520  2 H  s          
    16     -0.116495  2 H  s                  2      0.104908  1 C  s          

 Vector   10  Occ=2.000000D+00  E=-4.016258D-01  Symmetry=a"
              MO Center=  2.6D-02, -1.5D-01, -1.5D-15, r^2= 1.5D+00
   Bfn.  Coefficient  Atom+Function         Bfn.  Coefficient  Atom+Function  
  ----- ------------  ---------------      ----- ------------  ---------------
     5      0.376385  1 C  pz                22      0.353151  3 O  pz         
    37      0.313259  4 N  pz                41      0.214596  4 N  pz         
    26      0.208580  3 O  pz                 9      0.194241  1 C  pz         
    31      0.039927  3 O  dyz               12     -0.025179  1 C  dxz        

 Vector   11  Occ=2.000000D+00  E=-2.726032D-01  Symmetry=a"
              MO Center= -1.8D-01,  1.6D-01, -4.6D-16, r^2= 2.0D+00
   Bfn.  Coefficient  Atom+Function         Bfn.  Coefficient  Atom+Function  
  ----- ------------  ---------------      ----- ------------  ---------------
    37      0.485276  4 N  pz                41      0.421514  4 N  pz         
    22     -0.417348  3 O  pz                26     -0.297500  3 O  pz         
    14      0.071082  1 C  dyz                9     -0.057085  1 C  pz         
     5     -0.054119  1 C  pz                31     -0.029847  3 O  dyz        

 Vector   12  Occ=2.000000D+00  E=-2.544322D-01  Symmetry=a'
              MO Center= -4.5D-03, -8.6D-01,  4.7D-16, r^2= 1.4D+00
   Bfn.  Coefficient  Atom+Function         Bfn.  Coefficient  Atom+Function  
  ----- ------------  ---------------      ----- ------------  ---------------
    20      0.527112  3 O  px                24      0.362708  3 O  px         
    38      0.360480  4 N  s                 21     -0.283334  3 O  py         
    17     -0.266571  2 H  s                 25     -0.202091  3 O  py         
    16     -0.160303  2 H  s                 36     -0.151469  4 N  py         
    40     -0.131448  4 N  py                 8     -0.130315  1 C  py         

 Vector   13  Occ=0.000000D+00  E= 3.076018D-02  Symmetry=a"
              MO Center=  1.9D-01, -2.4D-01, -3.2D-16, r^2= 1.6D+00
   Bfn.  Coefficient  Atom+Function         Bfn.  Coefficient  Atom+Function  
  ----- ------------  ---------------      ----- ------------  ---------------
     9      0.633950  1 C  pz                 5      0.536926  1 C  pz         
    26     -0.438600  3 O  pz                22     -0.388510  3 O  pz         
    41     -0.368262  4 N  pz                37     -0.267221  4 N  pz         
    46     -0.046901  4 N  dyz               12      0.043210  1 C  dxz        
    44      0.028308  4 N  dxz        

 Vector   14  Occ=0.000000D+00  E= 7.289723D-02  Symmetry=a'
              MO Center= -8.2D-02,  1.7D+00, -5.9D-17, r^2= 2.9D+00
   Bfn.  Coefficient  Atom+Function         Bfn.  Coefficient  Atom+Function  
  ----- ------------  ---------------      ----- ------------  ---------------
    38      1.584048  4 N  s                 51     -1.387542  6 H  s          
    49     -0.901117  5 H  s                 40      0.492823  4 N  py         
    36      0.223599  4 N  py                34      0.189313  4 N  s          
    17     -0.178393  2 H  s                  6      0.134945  1 C  s          
     7      0.130565  1 C  px                33     -0.117115  4 N  s          

 Vector   15  Occ=0.000000D+00  E= 1.088036D-01  Symmetry=a'
              MO Center=  6.9D-02,  7.9D-01, -2.4D-17, r^2= 4.3D+00
   Bfn.  Coefficient  Atom+Function         Bfn.  Coefficient  Atom+Function  
  ----- ------------  ---------------      ----- ------------  ---------------
    49     -1.284778  5 H  s                 17      1.186984  2 H  s          
     6     -0.985137  1 C  s                 51      0.753778  6 H  s          
    39     -0.588821  4 N  px                38      0.574131  4 N  s          
     7     -0.428482  1 C  px                40     -0.368984  4 N  py         
    35     -0.267191  4 N  px                 3     -0.224668  1 C  px         

 Vector   16  Occ=0.000000D+00  E= 1.641755D-01  Symmetry=a'
              MO Center=  7.1D-01,  6.0D-01,  1.1D-16, r^2= 4.1D+00
   Bfn.  Coefficient  Atom+Function         Bfn.  Coefficient  Atom+Function  
  ----- ------------  ---------------      ----- ------------  ---------------
     6      1.709675  1 C  s                 17     -1.625865  2 H  s          
    49     -1.008587  5 H  s                 51      0.963760  6 H  s          
    39     -0.909387  4 N  px                 7      0.685935  1 C  px         
    38     -0.357374  4 N  s                 35     -0.280120  4 N  px         
     3      0.220983  1 C  px                24     -0.196764  3 O  px         

 Vector   17  Occ=0.000000D+00  E= 2.691975D-01  Symmetry=a'
              MO Center=  3.7D-01, -4.0D-01,  5.1D-17, r^2= 2.8D+00
   Bfn.  Coefficient  Atom+Function         Bfn.  Coefficient  Atom+Function  
  ----- ------------  ---------------      ----- ------------  ---------------
    23      2.414794  3 O  s                  8      2.050208  1 C  py         
     6     -1.428935  1 C  s                  7      1.239055  1 C  px         
    25      0.828298  3 O  py                39     -0.600155  4 N  px         
    17     -0.520934  2 H  s                 24      0.498161  3 O  px         
    38     -0.463703  4 N  s                 49     -0.369671  5 H  s          

 Vector   18  Occ=0.000000D+00  E= 3.451307D-01  Symmetry=a'
              MO Center=  2.2D-01,  3.2D-01, -6.8D-17, r^2= 2.3D+00
   Bfn.  Coefficient  Atom+Function         Bfn.  Coefficient  Atom+Function  
  ----- ------------  ---------------      ----- ------------  ---------------
     6      2.174332  1 C  s                 38     -1.778630  4 N  s          
    40      1.740566  4 N  py                 8      1.658718  1 C  py         
     7     -1.343768  1 C  px                51     -0.691611  6 H  s          
    17      0.666851  2 H  s                 39     -0.539843  4 N  px         
    25     -0.399960  3 O  py                 3     -0.395597  1 C  px         

 Vector   19  Occ=0.000000D+00  E= 5.350248D-01  Symmetry=a"
              MO Center=  4.4D-01, -9.8D-02,  2.7D-15, r^2= 2.0D+00
   Bfn.  Coefficient  Atom+Function         Bfn.  Coefficient  Atom+Function  
  ----- ------------  ---------------      ----- ------------  ---------------
     9      1.231582  1 C  pz                 5     -0.972846  1 C  pz         
    37     -0.238681  4 N  pz                26     -0.143677  3 O  pz         
    31     -0.097593  3 O  dyz               22     -0.077185  3 O  pz         
    46      0.075599  4 N  dyz               12      0.056308  1 C  dxz        
    29     -0.051365  3 O  dxz               44     -0.025926  4 N  dxz        

 Vector   20  Occ=0.000000D+00  E= 5.529739D-01  Symmetry=a'
              MO Center=  1.6D-01,  2.8D-01, -1.3D-15, r^2= 2.0D+00
   Bfn.  Coefficient  Atom+Function         Bfn.  Coefficient  Atom+Function  
  ----- ------------  ---------------      ----- ------------  ---------------
     6      1.361482  1 C  s                  8      1.155554  1 C  py         
     7     -1.148567  1 C  px                38     -0.790455  4 N  s          
     4     -0.703824  1 C  py                 2     -0.666760  1 C  s          
     3      0.404904  1 C  px                17      0.378687  2 H  s          
    25     -0.320188  3 O  py                39      0.200287  4 N  px         

 Vector   21  Occ=0.000000D+00  E= 6.496123D-01  Symmetry=a'
              MO Center=  4.8D-01,  2.8D-01, -1.8D-15, r^2= 2.7D+00
   Bfn.  Coefficient  Atom+Function         Bfn.  Coefficient  Atom+Function  
  ----- ------------  ---------------      ----- ------------  ---------------
     6      1.509185  1 C  s                 50     -0.637772  6 H  s          
    16     -0.623130  2 H  s                 40      0.547269  4 N  py         
     2     -0.533034  1 C  s                  7      0.526036  1 C  px         
    23     -0.415703  3 O  s                  8     -0.330925  1 C  py         
    21      0.275141  3 O  py                51      0.210900  6 H  s          

 Vector   22  Occ=0.000000D+00  E= 6.786721D-01  Symmetry=a'
              MO Center= -2.7D-01,  1.0D+00,  1.9D-16, r^2= 2.2D+00
   Bfn.  Coefficient  Atom+Function         Bfn.  Coefficient  Atom+Function  
  ----- ------------  ---------------      ----- ------------  ---------------
    40      1.373197  4 N  py                 7     -1.065933  1 C  px         
     6      1.055144  1 C  s                 48     -0.705841  5 H  s          
    39     -0.650603  4 N  px                38     -0.533963  4 N  s          
    23     -0.466974  3 O  s                  8      0.457754  1 C  py         
    36     -0.426888  4 N  py                50     -0.377436  6 H  s          

 Vector   23  Occ=0.000000D+00  E= 6.974099D-01  Symmetry=a'
              MO Center=  3.3D-02, -3.4D-01,  8.5D-16, r^2= 1.6D+00
   Bfn.  Coefficient  Atom+Function         Bfn.  Coefficient  Atom+Function  
  ----- ------------  ---------------      ----- ------------  ---------------
     7      1.109163  1 C  px                 8      0.780169  1 C  py         
     4     -0.743490  1 C  py                17     -0.632650  2 H  s          
     3     -0.608457  1 C  px                 2      0.432726  1 C  s          
    39     -0.382581  4 N  px                23      0.348799  3 O  s          
    21     -0.300763  3 O  py                11     -0.270941  1 C  dxy        

 Vector   24  Occ=0.000000D+00  E= 7.109222D-01  Symmetry=a"
              MO Center= -1.5D-01,  1.1D+00, -1.2D-15, r^2= 1.8D+00
   Bfn.  Coefficient  Atom+Function         Bfn.  Coefficient  Atom+Function  
  ----- ------------  ---------------      ----- ------------  ---------------
    41      1.266369  4 N  pz                37     -0.960729  4 N  pz         
     9     -0.693507  1 C  pz                 5      0.236515  1 C  pz         
    26      0.072970  3 O  pz                14     -0.071579  1 C  dyz        
    22      0.056621  3 O  pz                31      0.052609  3 O  dyz        
    46      0.052390  4 N  dyz               44     -0.030997  4 N  dxz        

 Vector   25  Occ=0.000000D+00  E= 8.394033D-01  Symmetry=a'
              MO Center=  1.2D+00, -9.9D-02,  3.1D-17, r^2= 2.1D+00
   Bfn.  Coefficient  Atom+Function         Bfn.  Coefficient  Atom+Function  
  ----- ------------  ---------------      ----- ------------  ---------------
    17      2.268918  2 H  s                  7     -1.879250  1 C  px         
     6     -1.742022  1 C  s                  2      1.170346  1 C  s          
    40      0.664987  4 N  py                16     -0.635646  2 H  s          
     3      0.620172  1 C  px                38     -0.403742  4 N  s          
    49     -0.324062  5 H  s                  8      0.215092  1 C  py         

 Vector   26  Occ=0.000000D+00  E= 8.611293D-01  Symmetry=a'
              MO Center= -4.2D-01, -9.5D-01,  2.6D-16, r^2= 2.9D+00
   Bfn.  Coefficient  Atom+Function         Bfn.  Coefficient  Atom+Function  
  ----- ------------  ---------------      ----- ------------  ---------------
     6      1.564425  1 C  s                 25     -1.104857  3 O  py         
    40      0.855469  4 N  py                49     -0.610216  5 H  s          
    24     -0.537069  3 O  px                 7     -0.513232  1 C  px         
    38     -0.491939  4 N  s                 21      0.484916  3 O  py         
    48      0.459356  5 H  s                 19     -0.397829  3 O  s          

 Vector   27  Occ=0.000000D+00  E= 8.722045D-01  Symmetry=a'
              MO Center=  1.5D-01,  1.3D+00,  2.8D-16, r^2= 2.5D+00
   Bfn.  Coefficient  Atom+Function         Bfn.  Coefficient  Atom+Function  
  ----- ------------  ---------------      ----- ------------  ---------------
     6      1.757209  1 C  s                 40      1.695372  4 N  py         
    51     -1.633358  6 H  s                 36     -0.781637  4 N  py         
     8      0.681268  1 C  py                50      0.675962  6 H  s          
    23     -0.597077  3 O  s                  7     -0.588922  1 C  px         
     2     -0.492908  1 C  s                 34     -0.378655  4 N  s          

 Vector   28  Occ=0.000000D+00  E= 8.870567D-01  Symmetry=a'
              MO Center= -6.8D-01,  7.6D-01, -3.0D-17, r^2= 2.4D+00
   Bfn.  Coefficient  Atom+Function         Bfn.  Coefficient  Atom+Function  
  ----- ------------  ---------------      ----- ------------  ---------------
    39      1.669971  4 N  px                49      1.626813  5 H  s          
     6     -1.039451  1 C  s                 35     -0.930619  4 N  px         
    51     -0.599568  6 H  s                 48     -0.509511  5 H  s          
     8     -0.476999  1 C  py                 2      0.429977  1 C  s          
    25     -0.311218  3 O  py                34      0.266673  4 N  s          

 Vector   29  Occ=0.000000D+00  E= 1.006839D+00  Symmetry=a"
              MO Center= -2.2D-01, -1.2D+00,  3.9D-16, r^2= 1.4D+00
   Bfn.  Coefficient  Atom+Function         Bfn.  Coefficient  Atom+Function  
  ----- ------------  ---------------      ----- ------------  ---------------
    26      1.279455  3 O  pz                22     -0.946226  3 O  pz         
     9     -0.619816  1 C  pz                41      0.199848  4 N  pz         
     5      0.102861  1 C  pz                44     -0.089949  4 N  dxz        
    14      0.072425  1 C  dyz               29     -0.050044  3 O  dxz        
    37     -0.041432  4 N  pz                12     -0.039635  1 C  dxz        

 Vector   30  Occ=0.000000D+00  E= 1.075410D+00  Symmetry=a'
              MO Center= -1.6D-01, -9.6D-01, -1.3D-16, r^2= 2.2D+00
   Bfn.  Coefficient  Atom+Function         Bfn.  Coefficient  Atom+Function  
  ----- ------------  ---------------      ----- ------------  ---------------
     6      1.378822  1 C  s                 38     -1.226812  4 N  s          
    24     -1.123918  3 O  px                 7      1.029878  1 C  px         
    17     -0.767825  2 H  s                 20      0.656846  3 O  px         
    25      0.638653  3 O  py                34      0.568153  4 N  s          
    21     -0.420013  3 O  py                 2     -0.344891  1 C  s          

 Vector   31  Occ=0.000000D+00  E= 1.214025D+00  Symmetry=a'
              MO Center= -3.7D-02,  4.6D-01,  2.6D-16, r^2= 2.8D+00
   Bfn.  Coefficient  Atom+Function         Bfn.  Coefficient  Atom+Function  
  ----- ------------  ---------------      ----- ------------  ---------------
    38      5.613481  4 N  s                  6     -3.178948  1 C  s          
     8     -1.908579  1 C  py                34     -1.639863  4 N  s          
     7      1.469613  1 C  px                40     -1.242844  4 N  py         
    24     -0.742320  3 O  px                39      0.624490  4 N  px         
    25      0.538882  3 O  py                51     -0.473697  6 H  s          

 Vector   32  Occ=0.000000D+00  E= 1.294496D+00  Symmetry=a'
              MO Center=  1.1D-01,  2.0D-01, -1.7D-16, r^2= 2.7D+00
   Bfn.  Coefficient  Atom+Function         Bfn.  Coefficient  Atom+Function  
  ----- ------------  ---------------      ----- ------------  ---------------
    39      1.944600  4 N  px                 7     -1.722607  1 C  px         
     6     -1.251774  1 C  s                 40      1.101304  4 N  py         
    17      0.754153  2 H  s                 23      0.656276  3 O  s          
    51     -0.644746  6 H  s                 50     -0.636439  6 H  s          
    16      0.613137  2 H  s                 24      0.583686  3 O  px         

 Vector   33  Occ=0.000000D+00  E= 1.375869D+00  Symmetry=a"
              MO Center=  8.8D-02,  2.2D-01,  1.3D-16, r^2= 1.3D+00
   Bfn.  Coefficient  Atom+Function         Bfn.  Coefficient  Atom+Function  
  ----- ------------  ---------------      ----- ------------  ---------------
    46     -0.899836  4 N  dyz               14      0.893468  1 C  dyz        
    12     -0.527866  1 C  dxz               29     -0.451048  3 O  dxz        
    44      0.351110  4 N  dxz               31     -0.121054  3 O  dyz        
    37     -0.107737  4 N  pz                22      0.077234  3 O  pz         
     5     -0.069757  1 C  pz                26      0.056435  3 O  pz         

 Vector   34  Occ=0.000000D+00  E= 1.473686D+00  Symmetry=a"
              MO Center=  8.2D-02, -5.5D-02,  1.1D-17, r^2= 1.4D+00
   Bfn.  Coefficient  Atom+Function         Bfn.  Coefficient  Atom+Function  
  ----- ------------  ---------------      ----- ------------  ---------------
    12      1.007949  1 C  dxz               44      0.806989  4 N  dxz        
    31     -0.662274  3 O  dyz               14      0.436571  1 C  dyz        
    46      0.395663  4 N  dyz                9     -0.197699  1 C  pz         
    26      0.196185  3 O  pz                 5      0.152782  1 C  pz         
    41      0.085756  4 N  pz                22      0.045865  3 O  pz         

 Vector   35  Occ=0.000000D+00  E= 1.515298D+00  Symmetry=a'
              MO Center=  1.4D-01, -4.8D-01, -3.2D-17, r^2= 2.4D+00
   Bfn.  Coefficient  Atom+Function         Bfn.  Coefficient  Atom+Function  
  ----- ------------  ---------------      ----- ------------  ---------------
    23      5.682893  3 O  s                  7      2.440530  1 C  px         
     8      2.367761  1 C  py                 6     -1.835794  1 C  s          
    19     -1.592336  3 O  s                 25      1.482921  3 O  py         
    39     -1.421084  4 N  px                17     -0.811437  2 H  s          
    24      0.691714  3 O  px                32     -0.534571  3 O  dzz        

 Vector   36  Occ=0.000000D+00  E= 1.684963D+00  Symmetry=a"
              MO Center= -1.2D-01,  4.9D-01, -5.4D-18, r^2= 1.5D+00
   Bfn.  Coefficient  Atom+Function         Bfn.  Coefficient  Atom+Function  
  ----- ------------  ---------------      ----- ------------  ---------------
    44      1.339130  4 N  dxz               31      0.688193  3 O  dyz        
    46      0.563172  4 N  dyz               12     -0.549848  1 C  dxz        
    14     -0.153208  1 C  dyz                5     -0.114044  1 C  pz         
    22     -0.091378  3 O  pz                29     -0.089796  3 O  dxz        
    26      0.034129  3 O  pz         

 Vector   37  Occ=0.000000D+00  E= 1.778182D+00  Symmetry=a'
              MO Center= -3.9D-02, -5.8D-01, -1.4D-16, r^2= 1.6D+00
   Bfn.  Coefficient  Atom+Function         Bfn.  Coefficient  Atom+Function  
  ----- ------------  ---------------      ----- ------------  ---------------
    23     -2.319877  3 O  s                  6      2.237245  1 C  s          
     7     -1.144425  1 C  px                40      0.882700  4 N  py         
    38     -0.750094  4 N  s                 25     -0.627465  3 O  py         
    28     -0.584396  3 O  dxy               19      0.579414  3 O  s          
    15     -0.499999  1 C  dzz               30      0.499361  3 O  dyy        

 Vector   38  Occ=0.000000D+00  E= 1.851622D+00  Symmetry=a"
              MO Center= -1.7D-01, -7.8D-01, -4.2D-17, r^2= 1.4D+00
   Bfn.  Coefficient  Atom+Function         Bfn.  Coefficient  Atom+Function  
  ----- ------------  ---------------      ----- ------------  ---------------
    29      1.489959  3 O  dxz               46     -0.612287  4 N  dyz        
    44      0.455199  4 N  dxz               31     -0.431704  3 O  dyz        
    12     -0.229867  1 C  dxz               14     -0.170603  1 C  dyz        
    41      0.161169  4 N  pz                 9     -0.140503  1 C  pz         
     5     -0.128242  1 C  pz                26      0.086139  3 O  pz         

 Vector   39  Occ=0.000000D+00  E= 1.871012D+00  Symmetry=a'
              MO Center=  1.1D-01, -4.5D-01, -9.9D-18, r^2= 1.5D+00
   Bfn.  Coefficient  Atom+Function         Bfn.  Coefficient  Atom+Function  
  ----- ------------  ---------------      ----- ------------  ---------------
     7      1.376236  1 C  px                23      1.061232  3 O  s          
     6     -0.868083  1 C  s                 38      0.741795  4 N  s          
    27     -0.684423  3 O  dxx               16     -0.576240  2 H  s          
    25      0.529117  3 O  py                43      0.458214  4 N  dxy        
    11      0.437503  1 C  dxy               13     -0.384594  1 C  dyy        

 Vector   40  Occ=0.000000D+00  E= 2.036485D+00  Symmetry=a'
              MO Center= -9.2D-02, -1.5D-02,  3.4D-17, r^2= 1.8D+00
   Bfn.  Coefficient  Atom+Function         Bfn.  Coefficient  Atom+Function  
  ----- ------------  ---------------      ----- ------------  ---------------
    38      1.117432  4 N  s                 28      0.723042  3 O  dxy        
    47     -0.682374  4 N  dzz               15     -0.584980  1 C  dzz        
    48     -0.456801  5 H  s                 34     -0.450021  4 N  s          
    32      0.400973  3 O  dzz               42      0.360433  4 N  dxx        
    50     -0.345739  6 H  s                 27     -0.304952  3 O  dxx        

 Vector   41  Occ=0.000000D+00  E= 2.104416D+00  Symmetry=a'
              MO Center= -2.4D-02,  4.1D-01, -2.0D-17, r^2= 1.6D+00
   Bfn.  Coefficient  Atom+Function         Bfn.  Coefficient  Atom+Function  
  ----- ------------  ---------------      ----- ------------  ---------------
    23      1.418887  3 O  s                 39     -1.207277  4 N  px         
     7      0.974598  1 C  px                11      0.977382  1 C  dxy        
    48     -0.865393  5 H  s                  6     -0.730797  1 C  s          
    19     -0.653728  3 O  s                 42      0.590955  4 N  dxx        
    50      0.570797  6 H  s                 40     -0.554732  4 N  py         

 Vector   42  Occ=0.000000D+00  E= 2.277613D+00  Symmetry=a'
              MO Center= -3.4D-02,  5.9D-01, -1.4D-18, r^2= 1.7D+00
   Bfn.  Coefficient  Atom+Function         Bfn.  Coefficient  Atom+Function  
  ----- ------------  ---------------      ----- ------------  ---------------
    43      1.456328  4 N  dxy               40      0.949135  4 N  py         
    50     -0.780163  6 H  s                  7     -0.745946  1 C  px         
    23     -0.522127  3 O  s                 15      0.480080  1 C  dzz        
    27      0.460315  3 O  dxx               42      0.435815  4 N  dxx        
     4      0.382277  1 C  py                17      0.342277  2 H  s          

 Vector   43  Occ=0.000000D+00  E= 2.294659D+00  Symmetry=a"
              MO Center=  2.8D-02,  5.0D-02, -8.0D-19, r^2= 1.6D+00
   Bfn.  Coefficient  Atom+Function         Bfn.  Coefficient  Atom+Function  
  ----- ------------  ---------------      ----- ------------  ---------------
    12      1.257926  1 C  dxz               46     -1.239446  4 N  dyz        
    31      0.974786  3 O  dyz               14     -0.549428  1 C  dyz        
     9     -0.399804  1 C  pz                44      0.369704  4 N  dxz        
    41      0.327840  4 N  pz                26      0.283702  3 O  pz         
     5     -0.195850  1 C  pz                29     -0.146071  3 O  dxz        

 Vector   44  Occ=0.000000D+00  E= 2.490730D+00  Symmetry=a'
              MO Center=  7.5D-02,  2.3D-01, -2.9D-19, r^2= 1.6D+00
   Bfn.  Coefficient  Atom+Function         Bfn.  Coefficient  Atom+Function  
  ----- ------------  ---------------      ----- ------------  ---------------
    38      2.696745  4 N  s                  6     -2.110949  1 C  s          
    40     -1.289802  4 N  py                 7      0.949537  1 C  px         
     8     -0.817842  1 C  py                43     -0.779212  4 N  dxy        
    47     -0.770622  4 N  dzz               15      0.756122  1 C  dzz        
    11     -0.617952  1 C  dxy               34     -0.609498  4 N  s          

 Vector   45  Occ=0.000000D+00  E= 2.633401D+00  Symmetry=a"
              MO Center=  8.1D-02, -5.1D-01,  6.3D-18, r^2= 1.4D+00
   Bfn.  Coefficient  Atom+Function         Bfn.  Coefficient  Atom+Function  
  ----- ------------  ---------------      ----- ------------  ---------------
    14      1.714145  1 C  dyz               31      1.334048  3 O  dyz        
    29      0.932199  3 O  dxz               46      0.523489  4 N  dyz        
    12      0.512199  1 C  dxz               44     -0.442517  4 N  dxz        
    26      0.402861  3 O  pz                 5     -0.187799  1 C  pz         
     9     -0.163759  1 C  pz                41     -0.070328  4 N  pz         

 Vector   46  Occ=0.000000D+00  E= 2.666041D+00  Symmetry=a'
              MO Center=  7.5D-02,  4.5D-01,  1.3D-17, r^2= 1.6D+00
   Bfn.  Coefficient  Atom+Function         Bfn.  Coefficient  Atom+Function  
  ----- ------------  ---------------      ----- ------------  ---------------
    38     -1.844802  4 N  s                  6      1.727193  1 C  s          
    11     -1.599784  1 C  dxy               45     -1.046880  4 N  dyy        
     8      0.923472  1 C  py                40      0.916612  4 N  py         
    39     -0.795945  4 N  px                42      0.734642  4 N  dxx        
    23     -0.617861  3 O  s                 48     -0.442058  5 H  s          

 Vector   47  Occ=0.000000D+00  E= 2.911996D+00  Symmetry=a'
              MO Center= -3.5D-02, -8.1D-01, -1.1D-17, r^2= 1.5D+00
   Bfn.  Coefficient  Atom+Function         Bfn.  Coefficient  Atom+Function  
  ----- ------------  ---------------      ----- ------------  ---------------
    23      2.342940  3 O  s                 25      1.368454  3 O  py         
    30      1.153862  3 O  dyy               11     -1.053090  1 C  dxy        
     4      0.969325  1 C  py                28      0.909896  3 O  dxy        
     2     -0.768390  1 C  s                  6     -0.757561  1 C  s          
    43      0.716126  4 N  dxy               19     -0.686240  3 O  s          

 Vector   48  Occ=0.000000D+00  E= 3.009988D+00  Symmetry=a'
              MO Center= -4.5D-02, -4.3D-01,  5.5D-18, r^2= 1.8D+00
   Bfn.  Coefficient  Atom+Function         Bfn.  Coefficient  Atom+Function  
  ----- ------------  ---------------      ----- ------------  ---------------
    23      1.828688  3 O  s                 28      1.741440  3 O  dxy        
     6     -1.443259  1 C  s                  2     -1.133568  1 C  s          
    43     -1.046494  4 N  dxy               13     -1.025575  1 C  dyy        
    25      0.840724  3 O  py                24      0.794005  3 O  px         
    10      0.787355  1 C  dxx                4      0.626115  1 C  py         

 Vector   49  Occ=0.000000D+00  E= 3.737892D+00  Symmetry=a'
              MO Center= -1.6D-01,  8.1D-01, -1.9D-18, r^2= 1.6D+00
   Bfn.  Coefficient  Atom+Function         Bfn.  Coefficient  Atom+Function  
  ----- ------------  ---------------      ----- ------------  ---------------
    38      3.697129  4 N  s                 23     -1.865755  3 O  s          
    47     -1.484027  4 N  dzz               42     -1.437266  4 N  dxx        
    45     -1.428749  4 N  dyy                8     -0.960591  1 C  py         
     2      0.909781  1 C  s                 34      0.907375  4 N  s          
    32      0.637262  3 O  dzz               30      0.544561  3 O  dyy        

 Vector   50  Occ=0.000000D+00  E= 3.863877D+00  Symmetry=a'
              MO Center= -2.1D-01, -9.0D-01, -4.3D-18, r^2= 1.8D+00
   Bfn.  Coefficient  Atom+Function         Bfn.  Coefficient  Atom+Function  
  ----- ------------  ---------------      ----- ------------  ---------------
    23      6.132410  3 O  s                  6     -2.471585  1 C  s          
    27     -1.772046  3 O  dxx               32     -1.739591  3 O  dzz        
    30     -1.508545  3 O  dyy               38      1.502955  4 N  s          
     7      1.468631  1 C  px                25      1.244775  3 O  py         
     8      1.148242  1 C  py                45     -0.621835  4 N  dyy        

 Vector   51  Occ=0.000000D+00  E= 4.181332D+00  Symmetry=a'
              MO Center=  4.1D-01, -7.0D-02, -2.1D-18, r^2= 9.8D-01
   Bfn.  Coefficient  Atom+Function         Bfn.  Coefficient  Atom+Function  
  ----- ------------  ---------------      ----- ------------  ---------------
     2      2.729508  1 C  s                 13     -2.310896  1 C  dyy        
    10     -1.794861  1 C  dxx               23      1.664993  3 O  s          
    15     -1.592980  1 C  dzz               38     -0.897593  4 N  s          
     7      0.690424  1 C  px                25      0.666669  3 O  py         
     8      0.624895  1 C  py                17     -0.619358  2 H  s          


 center of mass
 --------------
 x =  -0.02868454 y =  -0.12343474 z =   0.00000000

 moments of inertia (a.u.)
 ------------------
         159.227038905689           0.000000000000           0.000000000000
           0.000000000000          24.545416349003           0.000000000000
           0.000000000000           0.000000000000         183.772455254692

     Multipole analysis of the density
     ---------------------------------

     L   x y z        total         alpha         beta         nuclear
     -   - - -        -----         -----         ----         -------
     0   0 0 0     -0.000000    -12.000000    -12.000000     24.000000

     1   1 0 0      0.258678      0.129339      0.129339      0.000000
     1   0 1 0      1.486092      0.743046      0.743046     -0.000000
     1   0 0 1      0.000000      0.000000      0.000000      0.000000

     2   2 0 0    -11.165154    -15.084864    -15.084864     19.004574
     2   1 1 0     -0.763453      0.279864      0.279864     -1.323181
     2   1 0 1      0.000000      0.000000      0.000000      0.000000
     2   0 2 0    -12.861448    -50.861511    -50.861511     88.861574
     2   0 1 1      0.000000      0.000000      0.000000      0.000000
     2   0 0 2    -13.670690     -6.835345     -6.835345      0.000000


 Parallel integral file used      12 records with       0 large values


            General Information
            -------------------
          SCF calculation type: DFT
          Wavefunction type:  closed shell.
          No. of atoms     :     6
          No. of electrons :    24
           Alpha electrons :    12
            Beta electrons :    12
          Charge           :     0
          Spin multiplicity:     1
          Use of symmetry is: on ; symmetry adaption is: on 
          Maximum number of iterations:  30
          AO basis - number of functions:    51
                     number of shells:    24
          Convergence on energy requested:  1.00D-06
          Convergence on density requested:  1.00D-05
          Convergence on gradient requested:  5.00D-04

              XC Information
              --------------
                         B3LYP Method XC Potential
                     Hartree-Fock (Exact) Exchange  0.200          
                        Slater Exchange Functional  0.800 local    
                    Becke 1988 Exchange Functional  0.720 non-local
              Lee-Yang-Parr Correlation Functional  0.810          
                  VWN I RPA Correlation Functional  0.190 local    

             Grid Information
             ----------------
          Grid used for XC integration:  medium    
          Radial quadrature: Mura-Knowles        
          Angular quadrature: Lebedev. 
          Tag              B.-S. Rad. Rad. Pts. Rad. Cut. Ang. Pts.
          ---              ---------- --------- --------- ---------
          C                   0.70       49           7.0       434
          H                   0.35       45           8.0       434
          O                   0.60       49           8.0       434
          N                   0.65       49           7.0       434
          Grid pruning is: on 
          Number of quadrature shells:   282
          Spatial weights used:  Erf1

          Convergence Information
          -----------------------
          Convergence aids based upon iterative change in 
          total energy or number of iterations. 
          Levelshifting, if invoked, occurs when the 
          HOMO/LUMO gap drops below (HL_TOL):  1.00D-02
          DIIS, if invoked, will attempt to extrapolate 
          using up to (NFOCK): 10 stored Fock matrices.

                    Damping( 0%)  Levelshifting(0.5)       DIIS
                  --------------- ------------------- ---------------
          dE  on:    start            ASAP                start   
          dE off:    2 iters         30 iters            30 iters 


      Screening Tolerance Information
      -------------------------------
          Density screening/tol_rho:  1.00D-10
          AO Gaussian exp screening on grid/accAOfunc:  14
          CD Gaussian exp screening on grid/accCDfunc:  20
          XC Gaussian exp screening on grid/accXCfunc:  20
          Schwarz screening/accCoul:  1.00D-08



                            NWChem DFT Gradient Module
                            --------------------------



  charge          =   0.00
  wavefunction    = closed shell

  Using symmetry


                         DFT ENERGY GRADIENTS

    atom               coordinates                        gradient
                 x          y          z           x          y          z
   1 C       0.737306  -0.288962   0.000000   -0.002805   0.001177   0.000000
   2 H       2.831055  -0.187290   0.000000    0.000119   0.000006   0.000000
   3 O      -0.419652  -2.271312   0.000000    0.001182   0.002621   0.000000
   4 N      -0.338476   2.040752   0.000000    0.000156  -0.000661   0.000000
   5 H      -2.238831   2.180162   0.000000    0.002435  -0.000678   0.000000
   6 H       0.710486   3.626135   0.000000   -0.001088  -0.002466   0.000000

                 ----------------------------------------
                 |  Time  |  1-e(secs)   |  2-e(secs)   |
                 ----------------------------------------
                 |  CPU   |       0.00   |       1.34   |
                 ----------------------------------------
                 |  WALL  |       0.00   |       1.34   |
                 ----------------------------------------
  no constraints, skipping    0.0000000000000000     

@ Step       Energy      Delta E   Gmax     Grms     Xrms     Xmax   Walltime
@ ---- ---------------- -------- -------- -------- -------- -------- --------
@    0    -169.88880505  0.0D+00  0.00408  0.00160  0.00000  0.00000      3.6
                                                                    



                                Z-matrix (autoz)
                                -------- 

 Units are Angstrom for bonds and degrees for angles

      Type          Name      I     J     K     L     M      Value     Gradient
      ----------- --------  ----- ----- ----- ----- ----- ---------- ----------
    1 Stretch                  1     2                       1.10927    0.00012
    2 Stretch                  1     3                       1.21460   -0.00286
    3 Stretch                  1     4                       1.35792   -0.00408
    4 Stretch                  4     5                       1.00833   -0.00248
    5 Stretch                  4     6                       1.00596   -0.00266
    6 Bend                     1     4     5               118.98157   -0.00018
    7 Bend                     1     4     6               121.72368   -0.00014
    8 Bend                     2     1     3               123.04917    0.00012
    9 Bend                     2     1     4               112.00579    0.00012
   10 Bend                     3     1     4               124.94504   -0.00024
   11 Bend                     5     4     6               119.29475    0.00032
   12 Torsion                  2     1     4     5         180.00000    0.00000
   13 Torsion                  2     1     4     6          -0.00000    0.00000
   14 Torsion                  3     1     4     5           0.00000    0.00000
   15 Torsion                  3     1     4     6         180.00000    0.00000

  no constraints, skipping    0.0000000000000000     
  no constraints, skipping    0.0000000000000000     
  no constraints, skipping    0.0000000000000000     
  no constraints, skipping    0.0000000000000000     

                                 NWChem DFT Module
                                 -----------------




 Summary of "ao basis" -> "ao basis" (cartesian)
 ------------------------------------------------------------------------------
       Tag                 Description            Shells   Functions and Types
 ---------------- ------------------------------  ------  ---------------------
 C                           6-31G*                  6       15   3s2p1d
 H                           6-31G*                  2        2   2s
 O                           6-31G*                  6       15   3s2p1d
 N                           6-31G*                  6       15   3s2p1d


      Symmetry analysis of basis
      --------------------------

        a'         39
        a"         12

  Caching 1-el integrals 

            General Information
            -------------------
          SCF calculation type: DFT
          Wavefunction type:  closed shell.
          No. of atoms     :     6
          No. of electrons :    24
           Alpha electrons :    12
            Beta electrons :    12
          Charge           :     0
          Spin multiplicity:     1
          Use of symmetry is: on ; symmetry adaption is: on 
          Maximum number of iterations:  30
          AO basis - number of functions:    51
                     number of shells:    24
          Convergence on energy requested:  1.00D-06
          Convergence on density requested:  1.00D-05
          Convergence on gradient requested:  5.00D-04

              XC Information
              --------------
                         B3LYP Method XC Potential
                     Hartree-Fock (Exact) Exchange  0.200          
                        Slater Exchange Functional  0.800 local    
                    Becke 1988 Exchange Functional  0.720 non-local
              Lee-Yang-Parr Correlation Functional  0.810          
                  VWN I RPA Correlation Functional  0.190 local    

             Grid Information
             ----------------
          Grid used for XC integration:  medium    
          Radial quadrature: Mura-Knowles        
          Angular quadrature: Lebedev. 
          Tag              B.-S. Rad. Rad. Pts. Rad. Cut. Ang. Pts.
          ---              ---------- --------- --------- ---------
          C                   0.70       49           7.0       434
          H                   0.35       45           8.0       434
          O                   0.60       49           8.0       434
          N                   0.65       49           7.0       434
          Grid pruning is: on 
          Number of quadrature shells:   282
          Spatial weights used:  Erf1

          Convergence Information
          -----------------------
          Convergence aids based upon iterative change in 
          total energy or number of iterations. 
          Levelshifting, if invoked, occurs when the 
          HOMO/LUMO gap drops below (HL_TOL):  1.00D-02
          DIIS, if invoked, will attempt to extrapolate 
          using up to (NFOCK): 10 stored Fock matrices.

                    Damping( 0%)  Levelshifting(0.5)       DIIS
                  --------------- ------------------- ---------------
          dE  on:    start            ASAP                start   
          dE off:    2 iters         30 iters            30 iters 


      Screening Tolerance Information
      -------------------------------
          Density screening/tol_rho:  1.00D-10
          AO Gaussian exp screening on grid/accAOfunc:  14
          CD Gaussian exp screening on grid/accCDfunc:  20
          XC Gaussian exp screening on grid/accXCfunc:  20
          Schwarz screening/accCoul:  1.00D-08


 Loading old vectors from job with title :




      Symmetry analysis of molecular orbitals - initial
      -------------------------------------------------

  Numbering of irreducible representations: 

     1 a'          2 a"      

  Orbital symmetries:

     1 a'          2 a'          3 a'          4 a'          5 a'      
     6 a'          7 a'          8 a'          9 a'         10 a"      
    11 a"         12 a'         13 a"         14 a'         15 a'      
    16 a'         17 a'         18 a'         19 a"         20 a'      
    21 a'         22 a'      

   Time after variat. SCF:      3.6
   Time prior to 1st pass:      3.6

 Integral file          = ./NWChem_NH2COH_optfreq.aoints.0
 Record size in doubles =  65536        No. of integs per rec  =  43688
 Max. records in memory =     20        Max. records in file   = 219458
 No. of bits per label  =      8        No. of bits per value  =     64


 #quartets = 4.425D+04 #integrals = 4.998D+05 #direct =  0.0% #cached =100.0%


 Grid_pts file          = ./NWChem_NH2COH_optfreq.gridpts.0
 Record size in doubles =  12289        No. of grid_pts per rec  =   3070
 Max. records in memory =     45        Max. recs in file   =   1170355


           Memory utilization after 1st SCF pass: 
           Heap Space remaining (MW):       11.24            11240890
          Stack Space remaining (MW):       13.11            13106764

   convergence    iter        energy       DeltaE   RMS-Dens  Diis-err    time
 ---------------- ----- ----------------- --------- --------- ---------  ------
 d= 0,ls=0.0,diis     1   -169.8888158557 -2.41D+02  2.47D-04  1.31D-04     4.1
 d= 0,ls=0.0,diis     2   -169.8888270966 -1.12D-05  1.40D-04  7.90D-05     4.2
 d= 0,ls=0.0,diis     3   -169.8888327685 -5.67D-06  8.43D-05  2.57D-05     4.4
 d= 0,ls=0.0,diis     4   -169.8888348569 -2.09D-06  3.28D-05  6.04D-06     4.6
 d= 0,ls=0.0,diis     5   -169.8888354256 -5.69D-07  4.01D-06  1.32D-07     4.8


         Total DFT energy =     -169.888835425565
      One electron energy =     -371.432862494777
           Coulomb energy =      152.632901581899
    Exchange-Corr. energy =      -22.032561696335
 Nuclear repulsion energy =       70.943687183648

 Numeric. integr. density =       24.000000832129

     Total iterative time =      1.1s



                  Occupations of the irreducible representations
                  ----------------------------------------------

                     irrep           alpha         beta
                     --------     --------     --------
                     a'               10.0         10.0
                     a"                2.0          2.0


                       DFT Final Molecular Orbital Analysis
                       ------------------------------------

 Vector    1  Occ=2.000000D+00  E=-1.911696D+01  Symmetry=a'
              MO Center= -2.2D-01, -1.2D+00,  7.7D-33, r^2= 1.5D-02
   Bfn.  Coefficient  Atom+Function         Bfn.  Coefficient  Atom+Function  
  ----- ------------  ---------------      ----- ------------  ---------------
    18      0.992770  3 O  s                 19      0.025761  3 O  s          

 Vector    2  Occ=2.000000D+00  E=-1.436618D+01  Symmetry=a'
              MO Center= -1.8D-01,  1.1D+00, -5.2D-21, r^2= 2.0D-02
   Bfn.  Coefficient  Atom+Function         Bfn.  Coefficient  Atom+Function  
  ----- ------------  ---------------      ----- ------------  ---------------
    33      0.992600  4 N  s                 34      0.034842  4 N  s          

 Vector    3  Occ=2.000000D+00  E=-1.028975D+01  Symmetry=a'
              MO Center=  3.9D-01, -1.6D-01,  1.5D-20, r^2= 2.8D-02
   Bfn.  Coefficient  Atom+Function         Bfn.  Coefficient  Atom+Function  
  ----- ------------  ---------------      ----- ------------  ---------------
     1      0.992791  1 C  s                  2      0.048171  1 C  s          

 Vector    4  Occ=2.000000D+00  E=-1.030715D+00  Symmetry=a'
              MO Center= -4.2D-02, -6.8D-01, -9.8D-17, r^2= 7.8D-01
   Bfn.  Coefficient  Atom+Function         Bfn.  Coefficient  Atom+Function  
  ----- ------------  ---------------      ----- ------------  ---------------
    19      0.390108  3 O  s                 23      0.363113  3 O  s          
     2      0.257098  1 C  s                 18     -0.179679  3 O  s          
    21      0.137327  3 O  py                 1     -0.130109  1 C  s          
    34      0.126116  4 N  s                 38      0.118754  4 N  s          
     4     -0.113572  1 C  py                 3     -0.102152  1 C  px         

 Vector    5  Occ=2.000000D+00  E=-9.091899D-01  Symmetry=a'
              MO Center= -9.8D-02,  7.5D-01, -4.6D-17, r^2= 1.2D+00
   Bfn.  Coefficient  Atom+Function         Bfn.  Coefficient  Atom+Function  
  ----- ------------  ---------------      ----- ------------  ---------------
    38      0.402908  4 N  s                 34      0.397492  4 N  s          
     4      0.209967  1 C  py                33     -0.189347  4 N  s          
    19     -0.187366  3 O  s                 23     -0.163915  3 O  s          
    50      0.121284  6 H  s                 48      0.112429  5 H  s          
    18      0.083534  3 O  s                  2      0.068612  1 C  s          

 Vector    6  Occ=2.000000D+00  E=-6.271254D-01  Symmetry=a'
              MO Center=  1.6D-01,  5.2D-01, -3.5D-17, r^2= 1.7D+00
   Bfn.  Coefficient  Atom+Function         Bfn.  Coefficient  Atom+Function  
  ----- ------------  ---------------      ----- ------------  ---------------
     2      0.288413  1 C  s                 36     -0.252645  4 N  py         
    35      0.233232  4 N  px                 6      0.208337  1 C  s          
     4      0.167293  1 C  py                48     -0.164729  5 H  s          
    16      0.160580  2 H  s                 23     -0.151831  3 O  s          
    19     -0.142170  3 O  s                 38     -0.135656  4 N  s          

 Vector    7  Occ=2.000000D+00  E=-5.574112D-01  Symmetry=a'
              MO Center=  1.5D-02,  9.7D-01, -3.4D-17, r^2= 1.4D+00
   Bfn.  Coefficient  Atom+Function         Bfn.  Coefficient  Atom+Function  
  ----- ------------  ---------------      ----- ------------  ---------------
    36      0.358885  4 N  py                35      0.276709  4 N  px         
    50      0.253628  6 H  s                  3      0.213130  1 C  px         
    40      0.173257  4 N  py                39      0.143098  4 N  px         
    48     -0.131801  5 H  s                 51      0.124041  6 H  s          
    23      0.108228  3 O  s                  4     -0.098497  1 C  py         

 Vector    8  Occ=2.000000D+00  E=-4.792515D-01  Symmetry=a'
              MO Center=  1.6D-01,  1.0D-01,  9.6D-17, r^2= 2.0D+00
   Bfn.  Coefficient  Atom+Function         Bfn.  Coefficient  Atom+Function  
  ----- ------------  ---------------      ----- ------------  ---------------
    35      0.319782  4 N  px                 3     -0.272567  1 C  px         
     4      0.222335  1 C  py                20     -0.218591  3 O  px         
    23      0.208679  3 O  s                 16     -0.194621  2 H  s          
    48     -0.190266  5 H  s                 39      0.174041  4 N  px         
     6     -0.150148  1 C  s                 17     -0.133042  2 H  s          

 Vector    9  Occ=2.000000D+00  E=-4.096876D-01  Symmetry=a'
              MO Center= -9.0D-02, -9.3D-01, -2.5D-15, r^2= 1.5D+00
   Bfn.  Coefficient  Atom+Function         Bfn.  Coefficient  Atom+Function  
  ----- ------------  ---------------      ----- ------------  ---------------
    21      0.457353  3 O  py                23     -0.370319  3 O  s          
     3     -0.253789  1 C  px                25      0.245891  3 O  py         
     4     -0.237912  1 C  py                20      0.189214  3 O  px         
    19     -0.168749  3 O  s                 17     -0.130472  2 H  s          
    16     -0.116790  2 H  s                  2      0.104838  1 C  s          

 Vector   10  Occ=2.000000D+00  E=-4.004458D-01  Symmetry=a"
              MO Center=  2.7D-02, -1.5D-01,  2.9D-15, r^2= 1.5D+00
   Bfn.  Coefficient  Atom+Function         Bfn.  Coefficient  Atom+Function  
  ----- ------------  ---------------      ----- ------------  ---------------
     5      0.376221  1 C  pz                22      0.354306  3 O  pz         
    37      0.312001  4 N  pz                41      0.214045  4 N  pz         
    26      0.209653  3 O  pz                 9      0.195192  1 C  pz         
    31      0.039943  3 O  dyz        

 Vector   11  Occ=2.000000D+00  E=-2.724082D-01  Symmetry=a"
              MO Center= -1.8D-01,  1.6D-01, -1.4D-16, r^2= 2.0D+00
   Bfn.  Coefficient  Atom+Function         Bfn.  Coefficient  Atom+Function  
  ----- ------------  ---------------      ----- ------------  ---------------
    37      0.486024  4 N  pz                41      0.421952  4 N  pz         
    22     -0.416210  3 O  pz                26     -0.296864  3 O  pz         
    14      0.070767  1 C  dyz                9     -0.056250  1 C  pz         
     5     -0.053396  1 C  pz                31     -0.029704  3 O  dyz        

 Vector   12  Occ=2.000000D+00  E=-2.546707D-01  Symmetry=a'
              MO Center= -5.4D-03, -8.7D-01,  9.5D-17, r^2= 1.4D+00
   Bfn.  Coefficient  Atom+Function         Bfn.  Coefficient  Atom+Function  
  ----- ------------  ---------------      ----- ------------  ---------------
    20      0.528179  3 O  px                24      0.363347  3 O  px         
    38      0.358663  4 N  s                 21     -0.281904  3 O  py         
    17     -0.265205  2 H  s                 25     -0.201168  3 O  py         
    16     -0.159637  2 H  s                 36     -0.151439  4 N  py         
    40     -0.131829  4 N  py                 8     -0.129998  1 C  py         

 Vector   13  Occ=0.000000D+00  E= 2.933404D-02  Symmetry=a"
              MO Center=  1.9D-01, -2.4D-01, -1.8D-17, r^2= 1.6D+00
   Bfn.  Coefficient  Atom+Function         Bfn.  Coefficient  Atom+Function  
  ----- ------------  ---------------      ----- ------------  ---------------
     9      0.630540  1 C  pz                 5      0.537147  1 C  pz         
    26     -0.437051  3 O  pz                22     -0.388723  3 O  pz         
    41     -0.365554  4 N  pz                37     -0.267121  4 N  pz         
    46     -0.046654  4 N  dyz               12      0.043012  1 C  dxz        
    44      0.028016  4 N  dxz        

 Vector   14  Occ=0.000000D+00  E= 7.159480D-02  Symmetry=a'
              MO Center= -9.3D-02,  1.7D+00,  6.3D-17, r^2= 2.9D+00
   Bfn.  Coefficient  Atom+Function         Bfn.  Coefficient  Atom+Function  
  ----- ------------  ---------------      ----- ------------  ---------------
    38      1.579515  4 N  s                 51     -1.376538  6 H  s          
    49     -0.902411  5 H  s                 40      0.487958  4 N  py         
    36      0.222337  4 N  py                34      0.190968  4 N  s          
    17     -0.167675  2 H  s                  7      0.127457  1 C  px         
     6      0.121403  1 C  s                 33     -0.117779  4 N  s          

 Vector   15  Occ=0.000000D+00  E= 1.082172D-01  Symmetry=a'
              MO Center=  6.7D-02,  8.0D-01,  2.9D-17, r^2= 4.3D+00
   Bfn.  Coefficient  Atom+Function         Bfn.  Coefficient  Atom+Function  
  ----- ------------  ---------------      ----- ------------  ---------------
    49     -1.275931  5 H  s                 17      1.178899  2 H  s          
     6     -0.975399  1 C  s                 51      0.764026  6 H  s          
    39     -0.590270  4 N  px                38      0.559635  4 N  s          
     7     -0.425848  1 C  px                40     -0.372154  4 N  py         
    35     -0.269518  4 N  px                 3     -0.222870  1 C  px         

 Vector   16  Occ=0.000000D+00  E= 1.630597D-01  Symmetry=a'
              MO Center=  7.2D-01,  5.9D-01, -9.1D-17, r^2= 4.1D+00
   Bfn.  Coefficient  Atom+Function         Bfn.  Coefficient  Atom+Function  
  ----- ------------  ---------------      ----- ------------  ---------------
     6      1.717124  1 C  s                 17     -1.627581  2 H  s          
    49     -0.996160  5 H  s                 51      0.943600  6 H  s          
    39     -0.899329  4 N  px                 7      0.680429  1 C  px         
    38     -0.352793  4 N  s                 35     -0.279561  4 N  px         
     3      0.220370  1 C  px                24     -0.197024  3 O  px         

 Vector   17  Occ=0.000000D+00  E= 2.686730D-01  Symmetry=a'
              MO Center=  3.7D-01, -4.0D-01, -3.0D-17, r^2= 2.8D+00
   Bfn.  Coefficient  Atom+Function         Bfn.  Coefficient  Atom+Function  
[...]
    2       -8.512 ||      -0.372               0.065            -0.000
    3       -6.471 ||      -0.000               0.000             0.134
    4       -5.575 ||      -0.035               0.006             0.000
    5        2.205 ||      -0.004               0.001             0.435
    6        2.750 ||       0.369              -0.064             0.005
    7       76.172 ||      -0.000               0.000             2.500
    8      564.143 ||      -0.343               0.391             0.000
    9      651.373 ||      -0.000               0.000             0.682
   10     1045.200 ||       0.000              -0.000             0.038
   11     1060.416 ||       0.021              -0.262             0.000
   12     1281.176 ||       0.830              -1.264             0.000
   13     1437.191 ||       0.161               0.304            -0.000
   14     1638.966 ||      -0.731               1.007            -0.000
   15     1839.089 ||       0.459               2.867             0.000
   16     2963.729 ||      -1.639              -0.091            -0.000
   17     3586.280 ||      -0.406               0.732            -0.000
   18     3717.885 ||       0.799               0.396            -0.000
 ----------------------------------------------------------------------------



  
  
 ----------------------------------------------------------------------------
 Normal Eigenvalue ||                 Infra Red Intensities
  Mode   [cm**-1]  || [atomic units] [(debye/angs)**2] [(KM/mol)] [arbitrary]
 ------ ---------- || -------------- ----------------- ---------- -----------
    1      -11.524 ||    0.009225           0.213         8.993       1.574
    2       -8.512 ||    0.006185           0.143         6.030       1.055
    3       -6.471 ||    0.000778           0.018         0.758       0.133
    4       -5.575 ||    0.000056           0.001         0.054       0.010
    5        2.205 ||    0.008195           0.189         7.989       1.398
    6        2.750 ||    0.006068           0.140         5.915       1.035
    7       76.172 ||    0.270938           6.251       264.124      46.233
    8      564.143 ||    0.011745           0.271        11.450       2.004
    9      651.373 ||    0.020155           0.465        19.648       3.439
   10     1045.200 ||    0.000063           0.001         0.062       0.011
   11     1060.416 ||    0.002997           0.069         2.922       0.511
   12     1281.176 ||    0.099067           2.286        96.575      16.905
   13     1437.191 ||    0.005126           0.118         4.997       0.875
   14     1638.966 ||    0.067125           1.549        65.437      11.454
   15     1839.089 ||    0.365450           8.431       356.259      62.361
   16     2963.729 ||    0.116809           2.695       113.871      19.932
   17     3586.280 ||    0.030372           0.701        29.609       5.183
   18     3717.885 ||    0.034489           0.796        33.622       5.885
 ----------------------------------------------------------------------------





        Vibrational analysis via the FX method 
  --- with translations and rotations projected out ---
  --- via the Eckart algorithm                      ---
 Projected Nuclear Hessian trans-rot subspace norm:2.1375D-32
                         (should be close to zero!) 

          --------------------------------------------------------
          MASS-WEIGHTED PROJECTED HESSIAN (Hartree/Bohr/Bohr/Kamu)
          --------------------------------------------------------


               1            2            3            4            5            6            7            8            9           10
   ----- ----- ----- ----- -----
    1    6.42778D+01
    2    1.42165D+01  7.80791D+01
    3   -2.12413D-08  2.21799D-08  1.55823D+01
    4   -7.80217D+01  2.66713D+00  2.47538D-08  3.09566D+02
    5   -2.18574D-01 -1.81127D+01 -1.58935D-07  4.73125D+00  7.15309D+01
    6    1.94632D-08 -7.19988D-08 -1.76022D+01  1.45246D-07 -2.85658D-07  2.55871D+01
    7   -2.12892D+01 -2.03730D+01  5.55797D-08 -5.01824D+00 -1.04405D+01  7.72617D-08  1.70285D+01
    8   -2.05856D+01 -4.07119D+01 -8.75611D-08 -6.23112D+00 -1.48892D+00 -1.08851D-07  2.04804D+01  4.15298D+01
    9    4.52193D-08 -4.18019D-08 -5.30270D+00  8.10697D-08 -6.21433D-09  4.86031D+00 -2.83471D-08  5.34143D-08  2.02976D+00
   10   -1.60136D+01  6.82665D+00 -1.36078D-07 -5.32272D+00  9.50885D+00 -2.62440D-07  2.73328D+00 -1.25384D+00 -4.77832D-08  5.98466D+01
   11    7.95710D+00 -2.35287D+01  1.25938D-07  1.82804D+00  3.41062D-01  2.80016D-07 -1.85392D-01 -6.13659D+00  3.69831D-08  3.29974D+00
   12   -1.92054D-07  2.34283D-07 -3.26723D+00 -6.90625D-07  9.16893D-07  2.79623D+00 -1.30977D-07  1.44216D-07  1.28157D+00  1.03242D-06
   13   -4.30938D+00  6.49291D-01  1.25309D-07  3.82344D-01  2.67970D+00  1.90647D-07  5.97849D-01 -6.53882D-01  5.53587D-08 -1.20269D+02
   14    1.09681D+01  2.93693D+00  1.87679D-08  2.74747D+00 -5.17377D+00  4.67047D-08 -1.67347D+00  5.21949D-01 -1.18527D-07  7.35709D+00
   15    1.98852D-07 -2.97663D-07  2.78693D-01  8.96504D-07 -1.41534D-06  6.68251D+00  2.73919D-07 -3.53331D-07 -1.47327D+00 -1.48769D-06
   16    5.03551D+00  3.34375D+00  2.09045D-07 -8.92463D-01 -5.08079D-01  2.67398D-07 -1.44886D-01  1.00186D+00 -1.42148D-09 -5.31188D+01
   17   -7.45650D+00 -4.35400D+00 -5.69785D-08  1.32756D+00  8.03129D-01 -1.22728D-07  1.51485D+00 -1.12400D+00 -8.16630D-08 -4.77269D+01
   18    3.90721D-07 -4.13634D-07 -3.14145D+00  1.12418D-06 -1.14355D-06 -1.31635D+00  5.81819D-08  1.39625D-08  2.04737D+00 -1.43831D-06


              11           12           13           14           15           16           17           18
   ----- ----- ----- ----- -----
   11    5.83085D+01
   12   -9.61932D-07  8.65211D-01
   13    6.57138D+00 -9.49351D-07  4.67091D+02
   14   -2.12147D+01  5.10125D-07 -3.32302D+01  6.27360D+01
   15    1.42304D-06 -1.19737D+00  1.31425D-06 -4.61207D-07  8.63335D+00
   16   -4.74177D+01 -1.02387D-06 -6.67874D+00 -2.81210D+01  1.55722D-06  1.88774D+02
   17   -9.08363D+01  7.75644D-07  6.42003D+00  9.30239D+00 -9.93121D-07  1.89850D+02  3.47990D+02
   18    1.30066D-06  1.34452D+00  1.38089D-06 -1.07957D-06 -5.94512D+00  1.27621D-06 -1.25343D-06  4.93342D+00

 center of mass
 --------------
 x =  -0.02731896 y =  -0.12733436 z =   0.00000000

 moments of inertia (a.u.)
 ------------------
         160.075500299369           0.178800317407           0.000000000000
           0.178800317407          24.591569248706           0.000000000000
           0.000000000000           0.000000000000         184.667069548075

 Rotational Constants
 --------------------
 A=   2.448024 cm-1  (  3.522082 K)
 B=   0.376073 cm-1  (  0.541073 K)
 C=   0.325993 cm-1  (  0.469021 K)


 Temperature                      =   298.15K
 frequency scaling parameter      =   1.0000

 Zero-Point correction to Energy  =   28.383 kcal/mol  (  0.045231 au)
 Thermal correction to Energy     =   30.896 kcal/mol  (  0.049236 au)
 Thermal correction to Enthalpy   =   31.488 kcal/mol  (  0.050180 au)

 Total Entropy                    =   63.549 cal/mol-K
   - Translational                =   37.323 cal/mol-K (mol. weight =  45.0215)
   - Rotational                   =   21.204 cal/mol-K (symmetry #  =        1)
   - Vibrational                  =    5.022 cal/mol-K

 Cv (constant volume heat capacity) =   10.919 cal/mol-K
   - Translational                  =    2.979 cal/mol-K
   - Rotational                     =    2.979 cal/mol-K
   - Vibrational                    =    4.960 cal/mol-K



          -------------------------------------------------
          NORMAL MODE EIGENVECTORS IN CARTESIAN COORDINATES
          -------------------------------------------------
             (Projected Frequencies expressed in cm-1)

                    1           2           3           4           5           6
 
 P.Frequency       -0.00       -0.00       -0.00        0.00        0.00        0.00
 
           1     0.08890     0.00000     0.00000    -0.00000     0.00473     0.12016
           2    -0.05634    -0.00000    -0.00000     0.00000     0.14309     0.04184
           3     0.00000    -0.06045    -0.20015    -0.05089    -0.00000     0.00000
           4     0.09462     0.00000     0.00000    -0.00000     0.00543     0.11511
           5    -0.17133    -0.00000    -0.00000     0.00000     0.12890     0.14326
           6    -0.00000     0.00793    -0.58611     0.10561     0.00000     0.00000
           7    -0.02022    -0.00000    -0.00000     0.00000    -0.00873     0.21640
           8     0.00721    -0.00000    -0.00000    -0.00000     0.15092    -0.01421
           9    -0.00000     0.01380    -0.00455    -0.23916    -0.00000    -0.00000
          10     0.21734    -0.00000    -0.00000     0.00000     0.02057     0.00688
          11     0.00297     0.00000     0.00000     0.00000     0.15040    -0.01047
          12     0.00000    -0.23465     0.02085    -0.00541     0.00000     0.00000
          13     0.22536    -0.00000    -0.00000     0.00000     0.02156    -0.00020
          14     0.10765    -0.00000    -0.00000     0.00000     0.16331    -0.10280
          15    -0.00000    -0.31089     0.37443    -0.13517    -0.00000    -0.00000
          16     0.30481    -0.00000    -0.00000     0.00000     0.03136    -0.07026
          17    -0.05471     0.00000     0.00000    -0.00000     0.14329     0.04040
          18    -0.00000    -0.28980    -0.15861     0.15434    -0.00000    -0.00000

                    7           8           9          10          11          12
 
 P.Frequency       78.25      564.08      651.31     1045.25     1060.46     1281.20
 
           1    -0.00000    -0.12791    -0.00000     0.00000     0.00443     0.15842
           2    -0.00000     0.00179     0.00000    -0.00000    -0.03576    -0.10736
           3    -0.01565    -0.00000     0.09378     0.16730    -0.00000    -0.00000
           4     0.00000    -0.12671    -0.00000     0.00000    -0.00028     0.16212
           5    -0.00000     0.08430     0.00000    -0.00000    -0.24289    -0.18908
           6     0.01402    -0.00000     0.19493    -0.77414     0.00000     0.00000
           7     0.00000     0.07187     0.00000    -0.00000    -0.01100    -0.02654
           8    -0.00000    -0.11675    -0.00000    -0.00000    -0.09099     0.00299
           9    -0.01255     0.00000    -0.05554    -0.04325     0.00000     0.00000
          10    -0.00000     0.01153     0.00000    -0.00000     0.03888    -0.11342
          11     0.00000     0.09764     0.00000     0.00000     0.14345     0.06866
          12     0.11580     0.00000    -0.04164    -0.02731     0.00000    -0.00000
          13     0.00000     0.04184     0.00000    -0.00000    -0.00471    -0.08188
          14     0.00000     0.48623     0.00000    -0.00000    -0.32725     0.48034
          15    -0.48742    -0.00000     0.69288    -0.13947     0.00000     0.00000
          16     0.00000     0.30710     0.00000    -0.00000    -0.41331     0.03054
          17    -0.00000    -0.09556    -0.00000     0.00000     0.44678    -0.01433
          18    -0.75014     0.00000    -0.54443    -0.01250     0.00000     0.00000

                   13          14          15          16          17          18
 
 P.Frequency     1437.17     1638.96     1839.10     2963.71     3586.28     3717.89
 
           1     0.06096    -0.04409     0.08530    -0.08094    -0.00077    -0.00219
           2    -0.02872    -0.00772     0.21032    -0.00216     0.00218     0.00031
           3    -0.00000    -0.00000     0.00000     0.00000    -0.00000     0.00000
           4     0.04281    -0.05448     0.09620     0.95577    -0.00231     0.01058
           5     0.88823    -0.04406    -0.18072     0.01805    -0.00301    -0.00085
           6    -0.00000    -0.00000     0.00000     0.00000    -0.00000     0.00000
           7    -0.06552     0.02174    -0.06670     0.00090     0.00028     0.00036
           8    -0.05364     0.03150    -0.11705     0.00010     0.00053     0.00032
           9    -0.00000    -0.00000    -0.00000     0.00000    -0.00000    -0.00000
          10     0.02505     0.05085    -0.00341     0.00130     0.02804    -0.07201
          11     0.01171    -0.09154    -0.04208     0.00028    -0.04432    -0.03996
          12     0.00000     0.00000     0.00000    -0.00000     0.00000    -0.00000
          13     0.02448     0.10394     0.01661    -0.00839    -0.73825     0.61298
          14     0.03977     0.58230     0.14991     0.00074     0.05595    -0.05390
          15    -0.00000    -0.00000     0.00000     0.00000    -0.00000     0.00000
          16    -0.10132    -0.57615    -0.02243    -0.01607     0.35571     0.39728
          17     0.10249     0.32564    -0.03112     0.00136     0.52845     0.60112
          18    -0.00000    -0.00000    -0.00000     0.00000    -0.00000     0.00000



 ----------------------------------------------------------------------------
 Normal Eigenvalue ||    Projected Derivative Dipole Moments (debye/angs)
  Mode   [cm**-1]  ||      [d/dqX]             [d/dqY]           [d/dqZ]
 ------ ---------- || ------------------ ------------------ -----------------
    1       -0.000 ||       0.392              -0.069             0.000
    2       -0.000 ||      -0.000               0.000             0.370
    3       -0.000 ||       0.000              -0.000            -0.165
    4        0.000 ||      -0.000               0.000             0.467
    5        0.000 ||       0.048              -0.008            -0.000
    6        0.000 ||      -0.346               0.060            -0.000
    7       78.253 ||      -0.000               0.000             2.508
    8      564.082 ||      -0.343               0.391             0.000
    9      651.312 ||      -0.000               0.000             0.682
   10     1045.249 ||      -0.000               0.000             0.038
   11     1060.457 ||       0.021              -0.262             0.000
   12     1281.196 ||       0.830              -1.264             0.000
   13     1437.168 ||       0.161               0.304            -0.000
   14     1638.957 ||      -0.730               1.008            -0.000
   15     1839.096 ||       0.459               2.867             0.000
   16     2963.713 ||      -1.639              -0.091             0.000
   17     3586.278 ||      -0.406               0.732            -0.000
   18     3717.894 ||       0.799               0.396             0.000
 ----------------------------------------------------------------------------



  
  
 ----------------------------------------------------------------------------
 Normal Eigenvalue ||           Projected Infra Red Intensities
  Mode   [cm**-1]  || [atomic units] [(debye/angs)**2] [(KM/mol)] [arbitrary]
 ------ ---------- || -------------- ----------------- ---------- -----------
    1       -0.000 ||    0.006864           0.158         6.691       1.171
    2       -0.000 ||    0.005937           0.137         5.788       1.013
    3       -0.000 ||    0.001184           0.027         1.154       0.202
    4        0.000 ||    0.009435           0.218         9.198       1.610
    5        0.000 ||    0.000104           0.002         0.102       0.018
    6        0.000 ||    0.005339           0.123         5.205       0.911
    7       78.253 ||    0.272547           6.288       265.692      46.508
    8      564.082 ||    0.011746           0.271        11.451       2.004
    9      651.312 ||    0.020188           0.466        19.680       3.445
   10     1045.249 ||    0.000063           0.001         0.061       0.011
   11     1060.457 ||    0.003001           0.069         2.925       0.512
   12     1281.196 ||    0.099062           2.285        96.571      16.904
   13     1437.168 ||    0.005134           0.118         5.005       0.876
   14     1638.957 ||    0.067135           1.549        65.446      11.456
   15     1839.096 ||    0.365432           8.431       356.241      62.358
   16     2963.713 ||    0.116809           2.695       113.871      19.932
   17     3586.278 ||    0.030372           0.701        29.608       5.183
   18     3717.894 ||    0.034490           0.796        33.622       5.885
 ----------------------------------------------------------------------------



 vib:animation  F

 Task  times  cpu:       66.6s     wall:       66.7s


                                NWChem Input Module
                                -------------------


 Summary of allocated global arrays
-----------------------------------
  No active global arrays



                         GA Statistics for process    0
                         ------------------------------

       create   destroy   get      put      acc     scatter   gather  read&inc
calls: 1845     1845     1.23e+06 5.77e+04 1.32e+06  452        0     7956     
number of processes/call 7.44e+12 9.31e+12 5.43e+12 0.00e+00 0.00e+00
bytes total:             6.23e+08 4.59e+07 1.09e+09 3.74e+03 0.00e+00 6.36e+04
bytes remote:            0.00e+00 0.00e+00 0.00e+00 0.00e+00 0.00e+00 0.00e+00
Max memory consumed for GA by this process: 3719016 bytes

MA_summarize_allocated_blocks: starting scan ...
MA_summarize_allocated_blocks: scan completed: 0 heap blocks, 0 stack blocks
MA usage statistics:

	allocation statistics:
					      heap	     stack
					      ----	     -----
	current number of blocks	         0	         0
	maximum number of blocks	        26	        57
	current total bytes		         0	         0
	maximum total bytes		  23482824	  83102040
	maximum total K-bytes		     23483	     83103
	maximum total M-bytes		        24	        84


                                     CITATION
                                     --------
                Please cite the following reference when publishing
                           results obtained with NWChem:

                 M. Valiev, E.J. Bylaska, N. Govind, K. Kowalski,
              T.P. Straatsma, H.J.J. van Dam, D. Wang, J. Nieplocha,
                        E. Apra, T.L. Windus, W.A. de Jong
                 "NWChem: a comprehensive and scalable open-source
                  solution for large scale molecular simulations"
                      Comput. Phys. Commun. 181, 1477 (2010)
                           doi:10.1016/j.cpc.2010.04.018

                                      AUTHORS
                                      -------
     E. Apra, E. J. Bylaska, N. Govind, K. Kowalski, M. Valiev, W. A. de Jong,
      T. P. Straatsma, H. J. J. van Dam, D. Wang, T. L. Windus, N. P. Bauman,
       A. Panyala, J. Hammond, J. Autschbach, K. Bhaskaran-Nair, J. Brabec,
    K. Lopata, S. A. Fischer, S. Krishnamoorthy, M. Jacquelin, W. Ma, M. Klemm,
       O. Villa, Y. Chen, V. Anisimov, F. Aquino, S. Hirata, M. T. Hackler,
           Eric Hermes, L. Jensen, J. E. Moore, J. C. Becca, V. Konjkov,
            D. Mejia-Rodriguez, T. Risthaus, M. Malagoli, A. Marenich,
   A. Otero-de-la-Roza, J. Mullin, P. Nichols, R. Peverati, J. Pittner, Y. Zhao,
        P.-D. Fan, A. Fonari, M. J. Williamson, R. J. Harrison, J. R. Rehr,
      M. Dupuis, D. Silverstein, D. M. A. Smith, J. Nieplocha, V. Tipparaju,
      M. Krishnan, B. E. Van Kuiken, A. Vazquez-Mayagoitia, M. Swart, Q. Wu,
   T. Van Voorhis, A. A. Auer, M. Nooijen, L. D. Crosby, E. Brown, G. Cisneros,
     G. I. Fann, H. Fruchtl, J. Garza, K. Hirao, R. A. Kendall, J. A. Nichols,
       K. Tsemekhman, K. Wolinski, J. Anchell, D. E. Bernholdt, P. Borowski,
       T. Clark, D. Clerc, H. Dachsel, M. J. O. Deegan, K. Dyall, D. Elwood,
      E. Glendening, M. Gutowski, A. C. Hess, J. Jaffe, B. G. Johnson, J. Ju,
        R. Kobayashi, R. Kutteh, Z. Lin, R. Littlefield, X. Long, B. Meng,
      T. Nakajima, S. Niu, L. Pollack, M. Rosing, K. Glaesemann, G. Sandrone,
      M. Stave, H. Taylor, G. Thomas, J. H. van Lenthe, A. T. Wong, Z. Zhang.

 Total times  cpu:       78.8s     wall:       79.0s
