
                                 *****************
                                 * O   R   C   A *
                                 *****************

           --- An Ab Initio, DFT and Semiempirical electronic structure package ---

                  #######################################################
                  #                        -***-                        #
                  #          Department of theory and spectroscopy      #
                  #               Directorship: Frank Neese             #
                  #        Max Planck Institute fuer Kohlenforschung    #
                  #                Kaiser Wilhelm Platz 1               #
                  #                 D-45470 Muelheim/Ruhr               #
                  #                      Germany                        #
                  #                                                     #
                  #                  All rights reserved                #
                  #                        -***-                        #
                  #######################################################


                         Program Version 4.2.1 -  RELEASE  -


 With contributions from (in alphabetic order):
   Daniel Aravena         : Magnetic Suceptibility
   Michael Atanasov       : Ab Initio Ligand Field Theory (pilot matlab implementation)
   Alexander A. Auer      : GIAO ZORA, VPT2
   Ute Becker             : Parallelization
   Giovanni Bistoni       : ED, misc. LED, open-shell LED, HFLD
   Martin Brehm           : Molecular dynamics
   Dmytro Bykov           : SCF Hessian
   Vijay G. Chilkuri      : MRCI spin determinant printing, contributions to CSF-ICE
   Dipayan Datta          : RHF DLPNO-CCSD density
   Achintya Kumar Dutta   : EOM-CC, STEOM-CC
   Dmitry Ganyushin       : Spin-Orbit,Spin-Spin,Magnetic field MRCI
   Miquel Garcia          : C-PCM Hessian, Gaussian charge scheme
   Yang Guo               : DLPNO-NEVPT2, CIM, IAO-localization
   Andreas Hansen         : Spin unrestricted coupled pair/coupled cluster methods
   Benjamin Helmich-Paris : CASSCF linear response (MC-RPA)
   Lee Huntington         : MR-EOM, pCC
   Robert Izsak           : Overlap fitted RIJCOSX, COSX-SCS-MP3, EOM
   Christian Kollmar      : KDIIS, OOCD, Brueckner-CCSD(T), CCSD density
   Simone Kossmann        : Meta GGA functionals, TD-DFT gradient, OOMP2, MP2 Hessian
   Martin Krupicka        : AUTO-CI
   Lucas Lang             : DCDCAS
   Dagmar Lenk            : GEPOL surface, SMD
   Dimitrios Liakos       : Extrapolation schemes; Compound Job, initial MDCI parallelization
   Dimitrios Manganas     : Further ROCIS development; embedding schemes
   Dimitrios Pantazis     : SARC Basis sets
   Taras Petrenko         : DFT Hessian,TD-DFT gradient, ASA, ECA, R-Raman, ABS, FL, XAS/XES, NRVS
   Peter Pinski           : DLPNO-MP2, DLPNO-MP2 Gradient
   Christoph Reimann      : Effective Core Potentials
   Marius Retegan         : Local ZFS, SOC
   Christoph Riplinger    : Optimizer, TS searches, QM/MM, DLPNO-CCSD(T), (RO)-DLPNO pert. Triples
   Tobias Risthaus        : Range-separated hybrids, TD-DFT gradient, RPA, STAB
   Michael Roemelt        : Original ROCIS implementation
   Masaaki Saitow         : Open-shell DLPNO-CCSD energy and density
   Barbara Sandhoefer     : DKH picture change effects
   Avijit Sen             : IP-ROCIS
   Kantharuban Sivalingam : CASSCF convergence, NEVPT2, FIC-MRCI
   Bernardo de Souza      : ESD, SOC TD-DFT
   Georgi Stoychev        : AutoAux, RI-MP2 NMR
   Willem Van den Heuvel  : Paramagnetic NMR
   Boris Wezisla          : Elementary symmetry handling
   Frank Wennmohs         : Technical directorship


 We gratefully acknowledge several colleagues who have allowed us to
 interface, adapt or use parts of their codes:
   Stefan Grimme, W. Hujo, H. Kruse,             : VdW corrections, initial TS optimization,
                  C. Bannwarth                     DFT functionals, gCP, sTDA/sTD-DF
   Ed Valeev, F. Pavosevic, A. Kumar             : LibInt (2-el integral package), F12 methods
   Garnet Chan, S. Sharma, J. Yang, R. Olivares  : DMRG
   Ulf Ekstrom                                   : XCFun DFT Library
   Mihaly Kallay                                 : mrcc  (arbitrary order and MRCC methods)
   Andreas Klamt, Michael Diedenhofen            : otool_cosmo (COSMO solvation model)
   Jiri Pittner, Ondrej Demel                    : Mk-CCSD
   Frank Weinhold                                : gennbo (NPA and NBO analysis)
   Christopher J. Cramer and Donald G. Truhlar   : smd solvation model
   Lars Goerigk                                  : TD-DFT with DH, B97 family of functionals
   V. Asgeirsson, H. Jonsson                     : NEB implementation
   FAccTs GmbH                                   : IRC, NEB, NEB-TS, Multilevel, MM, QM/MM, CI optimization
   S Lehtola, MJT Oliveira, MAL Marques          : LibXC Library


 Your calculation uses the libint2 library for the computation of 2-el integrals
 For citations please refer to: http://libint.valeyev.net

 Your ORCA version has been built with support for libXC version: 4.2.3
 For citations please refer to: https://tddft.org/programs/libxc/

 This ORCA versions uses:
   CBLAS   interface :  Fast vector & matrix operations
   LAPACKE interface :  Fast linear algebra routines
   SCALAPACK package :  Parallel linear algebra routines


Your calculation utilizes the atom-pairwise dispersion correction
with the Becke-Johnson damping scheme (D3BJ)
Cite in your paper:
S.Grimme, S.Ehrlich, L.Goerigk, J Comput Chem, (2011), 32, 1456–1465 
S.Grimme, J.Antony, S.Ehrlich and H.Krieg, J.Chem.Phys., 132, (2010), 154104 
   

Your calculation utilizes the SMD solvation module
Please cite in your paper:
A.V. Marenich, C.J. Cramer, D.G. Truhlar J. Phys. Chem. B, 113, (2009), 6378 

----- Orbital basis set information -----
Your calculation utilizes the basis: def2-QZVPP
   F. Weigend and R. Ahlrichs, Phys. Chem. Chem. Phys. 7, 3297 (2005).

----- AuxJ basis set information -----
Your calculation utilizes the auxiliary basis: def2/J
   F. Weigend, Phys. Chem. Chem. Phys. 8, 1057 (2006).

----- AuxC basis set information -----
Your calculation utilizes the auxiliary basis: def2-QZVPP/C
  H-La, Hf-Rn : A. Hellweg, C. Hattig, S. Hofener and W. Klopper, Theor. Chem. Acc. 117, 587 (2007).
        Ce-Lu : J. Chmela and M. E. Harding, Mol. Phys. (2018).

================================================================================
                                        WARNINGS
                       Please study these warnings very carefully!
================================================================================


WARNING: No MP2 level density has been requested!
         To caclulate MP2 level properties use
         %mp2 Density relaxed end
         or
         %mp2 Density unrelaxed end
         Otherwise for double-hybrid DFT only the energy is correct!

WARNING: The frozen-core approximation is turned on by default for 
         the MP2 part of double-hybrid DFT.

INFO   : the flag for use of LIBINT has been found!

================================================================================
                                       INPUT FILE
================================================================================
NAME = orcaSP.inp
|  1> ! PWPB95 D3 def2-QZVPP def2/J def2-QZVPP/C RIJCOSX grid4 gridx4 tightSCF noautostart miniprint nopop
|  2> %maxcore 6000
|  3> %pal nprocs 36 end
|  4> %cpcm
|  5> smd true
|  6> SMDsolvent "water"
|  7> end
|  8> * xyz 0 1
|  9> C       1.47121600   -3.35668100    2.51342700
| 10> C       1.09040800   -2.17353200    3.41102400
| 11> C       1.28928700   -0.76720000    2.81474800
| 12> C       0.90107400    0.33807600    3.81707600
| 13> C      -0.57179900    0.31202500    4.23334500
| 14> C       2.70865800   -0.51319100    2.31859900
| 15> O       2.90177100   -1.25697800    1.09213700
| 16> C       3.88251300   -0.84801200    0.28168300
| 17> O       4.68197500    0.02516600    0.54045800
| 18> C       3.91060000   -1.67456100   -1.00888900
| 19> C       4.89914500   -1.08384700   -2.01301800
| 20> N       2.56305400   -1.87173300   -1.57116000
| 21> P       1.43142000   -0.65772900   -1.77661300
| 22> O       0.95998200   -0.49806700   -3.17258000
| 23> O       2.08207100    0.59791200   -1.02565300
| 24> C       2.42303800    1.82957200   -1.69703700
| 25> C       1.52323100    2.94256800   -1.19495400
| 26> C       1.39240500    3.02070000    0.32998900
| 27> C       0.08858600    2.26235600    0.60795900
| 28> C      -0.75423500    2.59926800   -0.67053200
| 29> O       0.19718700    2.71995000   -1.71903400
| 30> C      -1.48041000    3.88514200   -0.48670000
| 31> N      -2.09202400    4.86324100   -0.36499900
| 32> C      -1.73397300    1.53197800   -1.07794100
| 33> C      -1.93794000    0.94651800   -2.32698200
| 34> C      -2.98970600    0.02064800   -2.21697000
| 35> C      -3.42599800    0.04434700   -0.89376900
| 36> N      -2.63479100    0.98374800   -0.21527900
| 37> N      -2.76329000    1.27387600    1.11462500
| 38> C      -3.70232300    0.57922000    1.71741000
| 39> N      -4.50876600   -0.37489900    1.20754600
| 40> C      -4.36396600   -0.65029200   -0.08825700
| 41> N      -5.16120300   -1.60692800   -0.63213300
| 42> O      -0.45914300    2.71796600    1.81706900
| 43> O       1.26343800    4.37578600    0.70360200
| 44> O       0.25305000   -0.92890900   -0.67871200
| 45> C      -0.65593700   -1.97173500   -0.72402600
| 46> C      -0.90208000   -2.72668700   -1.87129200
| 47> C      -1.85983800   -3.74166700   -1.81971600
| 48> C      -2.57136500   -3.99579200   -0.64636300
| 49> C      -2.32287100   -3.21949800    0.48835800
| 50> C      -1.36831200   -2.20664200    0.45282500
| 51> H       0.96463800   -3.30205700    1.54511900
| 52> H       2.54606700   -3.39100900    2.31669900
| 53> H       1.18605100   -4.29979700    2.99378700
| 54> H       0.03512500   -2.27776500    3.69046600
| 55> H       1.65680800   -2.23197000    4.35265300
| 56> H       0.64375200   -0.66316400    1.93396100
| 57> H       1.54020000    0.26273300    4.70868000
| 58> H       1.10371400    1.31414300    3.36278900
| 59> H       2.87390600    0.54516600    2.10226300
| 60> H       3.46756800   -0.83265700    3.04251500
| 61> H      -1.21994200    0.33952200    3.34982300
| 62> H      -0.82675000   -0.58073000    4.81344300
| 63> H      -0.81309600    1.18650900    4.84680200
| 64> H       4.25660000   -2.67154800   -0.70361000
| 65> H       4.95622800   -1.72039800   -2.90203400
| 66> H       4.58195700   -0.08440700   -2.32296400
| 67> H       5.89514000   -1.00114400   -1.57125400
| 68> H       2.56257200   -2.51440600   -2.35567600
| 69> H       3.46739000    2.03380200   -1.44605700
| 70> H       2.30905600    1.70928600   -2.77711800
| 71> H       1.89492400    3.90027100   -1.57537100
| 72> H       2.24562800    2.54635900    0.83555200
| 73> H       0.26492800    1.18424600    0.60758700
| 74> H       0.63188100    4.39091700    1.44660800
| 75> H      -1.36805400    2.34368300    1.86123400
| 76> H      -1.34033400    1.15765500   -3.19963500
| 77> H      -3.37934000   -0.60712600   -3.00521400
| 78> H      -3.81997600    0.80290300    2.77356000
| 79> H      -5.66503600   -2.17047800    0.04034500
| 80> H      -4.81853300   -2.09649400   -1.44695800
| 81> H      -0.38822100   -2.49626700   -2.79689000
| 82> H      -1.17842600   -1.58630600    1.32020800
| 83> H      -2.04992700   -4.33268700   -2.71135500
| 84> H      -3.30858700   -4.79285000   -0.61427500
| 85> H      -2.87918200   -3.39022900    1.40502200
| 86> *
| 87> 
| 88>                          ****END OF INPUT****
================================================================================

                       ****************************
                       * Single Point Calculation *
                       ****************************

---------------------------------
CARTESIAN COORDINATES (ANGSTROEM)
---------------------------------
  C      1.471216   -3.356681    2.513427
  C      1.090408   -2.173532    3.411024
  C      1.289287   -0.767200    2.814748
  C      0.901074    0.338076    3.817076
  C     -0.571799    0.312025    4.233345
  C      2.708658   -0.513191    2.318599
  O      2.901771   -1.256978    1.092137
  C      3.882513   -0.848012    0.281683
  O      4.681975    0.025166    0.540458
  C      3.910600   -1.674561   -1.008889
  C      4.899145   -1.083847   -2.013018
  N      2.563054   -1.871733   -1.571160
  P      1.431420   -0.657729   -1.776613
  O      0.959982   -0.498067   -3.172580
  O      2.082071    0.597912   -1.025653
  C      2.423038    1.829572   -1.697037
  C      1.523231    2.942568   -1.194954
  C      1.392405    3.020700    0.329989
  C      0.088586    2.262356    0.607959
  C     -0.754235    2.599268   -0.670532
  O      0.197187    2.719950   -1.719034
  C     -1.480410    3.885142   -0.486700
  N     -2.092024    4.863241   -0.364999
  C     -1.733973    1.531978   -1.077941
  C     -1.937940    0.946518   -2.326982
  C     -2.989706    0.020648   -2.216970
  C     -3.425998    0.044347   -0.893769
  N     -2.634791    0.983748   -0.215279
  N     -2.763290    1.273876    1.114625
  C     -3.702323    0.579220    1.717410
  N     -4.508766   -0.374899    1.207546
  C     -4.363966   -0.650292   -0.088257
  N     -5.161203   -1.606928   -0.632133
  O     -0.459143    2.717966    1.817069
  O      1.263438    4.375786    0.703602
  O      0.253050   -0.928909   -0.678712
  C     -0.655937   -1.971735   -0.724026
  C     -0.902080   -2.726687   -1.871292
  C     -1.859838   -3.741667   -1.819716
  C     -2.571365   -3.995792   -0.646363
  C     -2.322871   -3.219498    0.488358
  C     -1.368312   -2.206642    0.452825
  H      0.964638   -3.302057    1.545119
  H      2.546067   -3.391009    2.316699
  H      1.186051   -4.299797    2.993787
  H      0.035125   -2.277765    3.690466
  H      1.656808   -2.231970    4.352653
  H      0.643752   -0.663164    1.933961
  H      1.540200    0.262733    4.708680
  H      1.103714    1.314143    3.362789
  H      2.873906    0.545166    2.102263
  H      3.467568   -0.832657    3.042515
  H     -1.219942    0.339522    3.349823
  H     -0.826750   -0.580730    4.813443
  H     -0.813096    1.186509    4.846802
  H      4.256600   -2.671548   -0.703610
  H      4.956228   -1.720398   -2.902034
  H      4.581957   -0.084407   -2.322964
  H      5.895140   -1.001144   -1.571254
  H      2.562572   -2.514406   -2.355676
  H      3.467390    2.033802   -1.446057
  H      2.309056    1.709286   -2.777118
  H      1.894924    3.900271   -1.575371
  H      2.245628    2.546359    0.835552
  H      0.264928    1.184246    0.607587
  H      0.631881    4.390917    1.446608
  H     -1.368054    2.343683    1.861234
  H     -1.340334    1.157655   -3.199635
  H     -3.379340   -0.607126   -3.005214
  H     -3.819976    0.802903    2.773560
  H     -5.665036   -2.170478    0.040345
  H     -4.818533   -2.096494   -1.446958
  H     -0.388221   -2.496267   -2.796890
  H     -1.178426   -1.586306    1.320208
  H     -2.049927   -4.332687   -2.711355
  H     -3.308587   -4.792850   -0.614275
  H     -2.879182   -3.390229    1.405022

----------------------------
CARTESIAN COORDINATES (A.U.)
----------------------------
  NO LB      ZA    FRAG     MASS         X           Y           Z
   0 C     6.0000    0    12.011    2.780195   -6.343208    4.749689
   1 C     6.0000    0    12.011    2.060572   -4.107380    6.445901
   2 C     6.0000    0    12.011    2.436399   -1.449798    5.319103
   3 C     6.0000    0    12.011    1.702783    0.638871    7.213228
   4 C     6.0000    0    12.011   -1.080544    0.589642    7.999863
   5 C     6.0000    0    12.011    5.118622   -0.969790    4.381517
   6 O     8.0000    0    15.999    5.483552   -2.375344    2.063840
   7 C     6.0000    0    12.011    7.336886   -1.602510    0.532304
   8 O     8.0000    0    15.999    8.847651    0.047557    1.021318
   9 C     6.0000    0    12.011    7.389963   -3.164462   -1.906524
  10 C     6.0000    0    12.011    9.258042   -2.048174   -3.804053
  11 N     7.0000    0    14.007    4.843470   -3.537063   -2.969062
  12 P    15.0000    0    30.974    2.704992   -1.242928   -3.357312
  13 O     8.0000    0    15.999    1.814103   -0.941210   -5.995307
  14 O     8.0000    0    15.999    3.934544    1.129890   -1.938203
  15 C     6.0000    0    12.011    4.578878    3.457390   -3.206935
  16 C     6.0000    0    12.011    2.878489    5.560648   -2.258136
  17 C     6.0000    0    12.011    2.631264    5.708296    0.623589
  18 C     6.0000    0    12.011    0.167403    4.275233    1.148876
  19 C     6.0000    0    12.011   -1.425298    4.911905   -1.267122
  20 O     8.0000    0    15.999    0.372629    5.139961   -3.248503
  21 C     6.0000    0    12.011   -2.797569    7.341854   -0.919730
  22 N     7.0000    0    14.007   -3.953352    9.190194   -0.689748
  23 C     6.0000    0    12.011   -3.276734    2.895019   -2.037013
  24 C     6.0000    0    12.011   -3.662176    1.788660   -4.397359
  25 C     6.0000    0    12.011   -5.649726    0.039019   -4.189466
  26 C     6.0000    0    12.011   -6.474198    0.083804   -1.688979
  27 N     7.0000    0    14.007   -4.979033    1.859014   -0.406818
  28 N     7.0000    0    14.007   -5.221861    2.407277    2.106336
  29 C     6.0000    0    12.011   -6.996377    1.094567    3.245435
  30 N     7.0000    0    14.007   -8.520333   -0.708456    2.281931
  31 C     6.0000    0    12.011   -8.246701   -1.228874   -0.166782
  32 N     7.0000    0    14.007   -9.753260   -3.036654   -1.194558
  33 O     8.0000    0    15.999   -0.867655    5.136211    3.433763
  34 O     8.0000    0    15.999    2.387552    8.269037    1.329615
  35 O     8.0000    0    15.999    0.478195   -1.755384   -1.282580
  36 C     6.0000    0    12.011   -1.239541   -3.726039   -1.368211
  37 C     6.0000    0    12.011   -1.704684   -5.152692   -3.536229
  38 C     6.0000    0    12.011   -3.514584   -7.070726   -3.438765
  39 C     6.0000    0    12.011   -4.859176   -7.550953   -1.221449
  40 C     6.0000    0    12.011   -4.389590   -6.083970    0.922863
  41 C     6.0000    0    12.011   -2.585735   -4.169949    0.855715
  42 H     1.0000    0     1.008    1.822902   -6.239983    2.919852
  43 H     1.0000    0     1.008    4.811369   -6.408078    4.377927
  44 H     1.0000    0     1.008    2.241312   -8.125439    5.657438
  45 H     1.0000    0     1.008    0.066377   -4.304352    6.973970
  46 H     1.0000    0     1.008    3.130913   -4.217812    8.225322
  47 H     1.0000    0     1.008    1.216515   -1.253198    3.654657
  48 H     1.0000    0     1.008    2.910556    0.496493    8.898116
  49 H     1.0000    0     1.008    2.085717    2.483370    6.354750
  50 H     1.0000    0     1.008    5.430895    1.030214    3.972701
  51 H     1.0000    0     1.008    6.552754   -1.573494    5.749520
  52 H     1.0000    0     1.008   -2.305356    0.641604    6.330248
  53 H     1.0000    0     1.008   -1.562331   -1.097421    9.096089
  54 H     1.0000    0     1.008   -1.536529    2.242177    9.159128
  55 H     1.0000    0     1.008    8.043808   -5.048494   -1.329630
  56 H     1.0000    0     1.008    9.365914   -3.251081   -5.484049
  57 H     1.0000    0     1.008    8.658644   -0.159506   -4.389766
  58 H     1.0000    0     1.008   11.140200   -1.891888   -2.969240
  59 H     1.0000    0     1.008    4.842559   -4.751539   -4.451583
  60 H     1.0000    0     1.008    6.552417    3.843329   -2.732652
  61 H     1.0000    0     1.008    4.363483    3.230082   -5.247992
  62 H     1.0000    0     1.008    3.580887    7.370444   -2.977020
  63 H     1.0000    0     1.008    4.243622    4.811921    1.578964
  64 H     1.0000    0     1.008    0.500641    2.237901    1.148173
  65 H     1.0000    0     1.008    1.194082    8.297631    2.733693
  66 H     1.0000    0     1.008   -2.585247    4.428919    3.517223
  67 H     1.0000    0     1.008   -2.532864    2.187651   -6.046434
  68 H     1.0000    0     1.008   -6.386027   -1.147302   -5.679031
  69 H     1.0000    0     1.008   -7.218708    1.517267    5.241269
  70 H     1.0000    0     1.008  -10.705367   -4.101609    0.076241
  71 H     1.0000    0     1.008   -9.105708   -3.961800   -2.734354
  72 H     1.0000    0     1.008   -0.733631   -4.717261   -5.285356
  73 H     1.0000    0     1.008   -2.226902   -2.997684    2.494832
  74 H     1.0000    0     1.008   -3.873801   -8.187592   -5.123718
  75 H     1.0000    0     1.008   -6.252323   -9.057174   -1.160812
  76 H     1.0000    0     1.008   -5.440865   -6.406604    2.655107



           ************************************************************
           *        Program running with 36 parallel MPI-processes    *
           *              working on a common directory               *
           ************************************************************
 One Electron integrals                  ... done
 Pre-screening matrix                    ... done


           ************************************************************
           *        Program running with 36 parallel MPI-processes    *
           *              working on a common directory               *
           ************************************************************

Diagonalization of the overlap matrix:
Smallest eigenvalue                        ... 3.096e-06
Time for diagonalization                   ...    1.903 sec
Threshold for overlap eigenvalues          ... 1.000e-08
Number of eigenvalues below threshold      ... 0
Time for construction of square roots      ...    2.227 sec
Total time needed                          ...    4.186 sec

-------------------
DFT GRID GENERATION
-------------------

General Integration Accuracy     IntAcc      ...  4.670
Radial Grid Type                 RadialGrid  ... Gauss-Chebyshev
Angular Grid (max. acc.)         AngularGrid ... Lebedev-302
Angular grid pruning method      GridPruning ... 3 (G Style)
Weight generation scheme         WeightScheme... Becke
Basis function cutoff            BFCut       ...    1.0000e-11
Integration weight cutoff        WCut        ...    1.0000e-14
Grids for H and He will be reduced by one unit

# of grid points (after initial pruning)     ... 380328 (   0.0 sec)
# of grid points (after weights+screening)   ... 315881 (   0.8 sec)
nearest neighbour list constructed           ...    0.0 sec
Grid point re-assignment to atoms done       ...    0.1 sec
Grid point division into batches done        ...    1.1 sec
Reduced shell lists constructed in    2.0 sec

Total number of grid points                  ...   315881
Total number of batches                      ...     4975
Average number of points per batch           ...       63
Average number of grid points per atom       ...     4102
Average number of shells per batch           ...   345.64 (32.33%)
Average number of basis functions per batch  ...   988.89 (28.61%)
Average number of large shells per batch     ...   205.88 (59.56%)
Average number of large basis fcns per batch ...   591.32 (59.80%)
Maximum spatial batch extension              ...   8.33, 20.23, 11.60 au
Average spatial batch extension              ...   0.03,  0.05,  0.04 au

Time for grid setup =    3.285 sec

Loading Hartree-Fock densities                     ... done
Calculating cut-offs                               ... done
Setting up the integral package                    ... done
Initializing the effective Hamiltonian             ... done
Starting the Coulomb interaction                   ... done (   1.9 sec)
Reading the grid                                   ... done
Mapping shells                                     ... done
Starting the XC term evaluation                    ... done (   3.0 sec)
  promolecular density results
     # of electrons  =    317.981090685
     EX              =   -277.759761128
     EC              =    -20.766737457
     EX+EC           =   -298.526498586
Transforming the Hamiltonian                       ... done (   1.5 sec)
Diagonalizing the Hamiltonian                      ... done (   2.2 sec)
Back transforming the eigenvectors                 ... done (   0.7 sec)
Now organizing SCF variables                       ... done
--------------------
COSX GRID GENERATION
--------------------

General Integration Accuracy     IntAcc      ...  3.340
Radial Grid Type                 RadialGrid  ... Gauss-Chebyshev
Angular Grid (max. acc.)         AngularGrid ... Lebedev-50
Angular grid pruning method      GridPruning ... 3 (G Style)
Weight generation scheme         WeightScheme... Becke
Basis function cutoff            BFCut       ...    1.0000e-11
Integration weight cutoff        WCut        ...    1.0000e-14
Grids for H and He will be reduced by one unit

# of grid points (after initial pruning)     ...  35602 (   0.0 sec)
# of grid points (after weights+screening)   ...  30927 (   0.1 sec)
nearest neighbour list constructed           ...    0.0 sec
Grid point re-assignment to atoms done       ...    0.0 sec
Grid point division into batches done        ...    0.0 sec
Reduced shell lists constructed in    0.1 sec

Total number of grid points                  ...    30927
Total number of batches                      ...      526
Average number of points per batch           ...       58
Average number of grid points per atom       ...      402
Average number of shells per batch           ...   364.94 (34.14%)
Average number of basis functions per batch  ...  1067.44 (30.88%)
Average number of large shells per batch     ...   212.81 (58.31%)
Average number of large basis fcns per batch ...   618.81 (57.97%)
Maximum spatial batch extension              ...   5.64, 12.62,  3.90 au
Average spatial batch extension              ...   0.06,  0.09,  0.06 au

Overlap Fitting                  UseSFitting ... on
Constructing numerical overlap ... done (      0.8 sec)
Inverting numerical overlap    ... done (      0.8 sec)
Obtaining analytic overlap     ... done (      0.1 sec)
Final contraction and storage  ... done (      3.3 sec)


General Integration Accuracy     IntAcc      ...  4.010
Radial Grid Type                 RadialGrid  ... Gauss-Chebyshev
Angular Grid (max. acc.)         AngularGrid ... Lebedev-50
Angular grid pruning method      GridPruning ... 3 (G Style)
Weight generation scheme         WeightScheme... Becke
Basis function cutoff            BFCut       ...    1.0000e-11
Integration weight cutoff        WCut        ...    1.0000e-14
Grids for H and He will be reduced by one unit

# of grid points (after initial pruning)     ...  54842 (   0.0 sec)
# of grid points (after weights+screening)   ...  47304 (   0.1 sec)
nearest neighbour list constructed           ...    0.0 sec
Grid point re-assignment to atoms done       ...    0.0 sec
Grid point division into batches done        ...    0.0 sec
Reduced shell lists constructed in    0.2 sec

Total number of grid points                  ...    47304
Total number of batches                      ...      782
Average number of points per batch           ...       60
Average number of grid points per atom       ...      614
Average number of shells per batch           ...   355.26 (33.23%)
Average number of basis functions per batch  ...  1029.17 (29.77%)
Average number of large shells per batch     ...   208.48 (58.68%)
Average number of large basis fcns per batch ...   603.17 (58.61%)
Maximum spatial batch extension              ...   2.35,  6.86,  3.66 au
Average spatial batch extension              ...   0.05,  0.06,  0.05 au

Overlap Fitting                  UseSFitting ... on
Constructing numerical overlap ... done (      1.0 sec)
Inverting numerical overlap    ... done (      0.8 sec)
Obtaining analytic overlap     ... done (      0.1 sec)
Final contraction and storage  ... done (      3.3 sec)


General Integration Accuracy     IntAcc      ...  4.340
Radial Grid Type                 RadialGrid  ... Gauss-Chebyshev
Angular Grid (max. acc.)         AngularGrid ... Lebedev-194
Angular grid pruning method      GridPruning ... 3 (G Style)
Weight generation scheme         WeightScheme... Becke
Basis function cutoff            BFCut       ...    1.0000e-11
Integration weight cutoff        WCut        ...    1.0000e-14
Grids for H and He will be reduced by one unit

# of grid points (after initial pruning)     ... 192412 (   0.0 sec)
# of grid points (after weights+screening)   ... 162338 (   0.4 sec)
nearest neighbour list constructed           ...    0.0 sec
Grid point re-assignment to atoms done       ...    0.1 sec
Grid point division into batches done        ...    0.3 sec
Reduced shell lists constructed in    0.7 sec

Total number of grid points                  ...   162338
Total number of batches                      ...     2578
Average number of points per batch           ...       62
Average number of grid points per atom       ...     2108
Average number of shells per batch           ...   350.49 (32.79%)
Average number of basis functions per batch  ...  1007.84 (29.15%)
Average number of large shells per batch     ...   208.77 (59.56%)
Average number of large basis fcns per batch ...   601.29 (59.66%)
Maximum spatial batch extension              ...   6.89, 19.00, 10.38 au
Average spatial batch extension              ...   0.04,  0.06,  0.05 au

Overlap Fitting                  UseSFitting ... on
Constructing numerical overlap ... done (      2.3 sec)
Inverting numerical overlap    ... done (      0.8 sec)
Obtaining analytic overlap     ... done (      0.1 sec)
Final contraction and storage  ... done (      3.3 sec)

Time for X-Grid setup             =   19.504 sec

--------------------
CPCM SOLVATION MODEL
--------------------
CPCM parameters:
  Epsilon                                         ...      78.3550
  Refrac                                          ...       1.0000
  Rsolv                                           ...       1.3000
  Surface type                                    ...    GEPOL SES
  Epsilon function type                           ...         CPCM
Solvent:                                     ... WATER
SMD-CDS solvent descriptors:
  Soln                                       ...    1.3328
  Soln25                                     ...    1.3323
  Sola                                       ...    0.0000
  Solb                                       ...    0.0000
  Solg                                       ...    0.0000
  Solc                                       ...    0.0000
  Solh                                       ...    0.0000
Radii:
 Radius for C  used is    3.4960 Bohr (=   1.8500 Ang.)
 Radius for O  used is    2.8724 Bohr (=   1.5200 Ang.)
 Radius for N  used is    3.5716 Bohr (=   1.8900 Ang.)
 Radius for P  used is    4.0062 Bohr (=   2.1200 Ang.)
 Radius for H  used is    2.2677 Bohr (=   1.2000 Ang.)
Calculating surface                               ...        done! (  1.0s)
GEPOL surface points                              ...         2702
GEPOL Volume                                      ...    4198.5925
GEPOL Surface-area                                ...    1634.6805
Calculating surface distance matrix               ...        done! (  0.1s)
Performing Cholesky decomposition & store         ...        done! (  0.5s)
Overall time for CPCM initialization              ...                 1.6s
--------------
SCF ITERATIONS
--------------
ITER       Energy         Delta-E        Max-DP      RMS-DP      [F,P]     Damp
               ***  Starting incremental Fock matrix formation  ***
  0  -2317.5531243925   0.000000000000 0.06484957  0.00030840  0.4610480 0.7000
  1  -2318.2993987996  -0.746274407154 0.06921655  0.00024767  0.2106901 0.7000
                               ***Turning on DIIS***
  2  -2318.6442634908  -0.344864691204 0.14523745  0.00056681  0.0779527 0.0000
  3  -2319.2218303898  -0.577566898930 0.03840546  0.00011657  0.0967756 0.0000
  4  -2319.3086898111  -0.086859421308 0.01211104  0.00004647  0.0221950 0.0000
  5  -2319.3116490205  -0.002959209366 0.01009722  0.00001908  0.0123242 0.0000
                      *** Initiating the SOSCF procedure ***
                           *** Shutting down DIIS ***
                      *** Re-Reading the Fockian *** 
                      *** Removing any level shift *** 
ITER      Energy       Delta-E        Grad      Rot      Max-DP    RMS-DP
  6  -2319.31221646  -0.0005674437  0.000395  0.000395  0.003538  0.000008
               *** Restarting incremental Fock matrix formation ***
  7  -2319.31230881  -0.0000923417  0.000207  0.000738  0.031984  0.000119
  8  -2319.31231392  -0.0000051111  0.000233  0.000436  0.010083  0.000039
  9  -2319.31231392  -0.0000000054  0.000145  0.000139  0.009240  0.000035
 10  -2319.31231801  -0.0000040908  0.000040  0.000064  0.002158  0.000008
 11  -2319.31231888  -0.0000008664  0.000019  0.000040  0.001803  0.000007
 12  -2319.31231847   0.0000004136  0.000004  0.000015  0.000146  0.000000
                  ***Gradient check signals convergence***
              ***Rediagonalizing the Fockian in SOSCF/NRSCF***

               *****************************************************
               *                     SUCCESS                       *
               *           SCF CONVERGED AFTER  13 CYCLES          *
               *****************************************************

Setting up the final grid:

General Integration Accuracy     IntAcc      ...  5.010
Radial Grid Type                 RadialGrid  ... Gauss-Chebyshev
Angular Grid (max. acc.)         AngularGrid ... Lebedev-434
Angular grid pruning method      GridPruning ... 3 (G Style)
Weight generation scheme         WeightScheme... Becke
Basis function cutoff            BFCut       ...    1.0000e-11
Integration weight cutoff        WCut        ...    1.0000e-14
Grids for H and He will be reduced by one unit

# of grid points (after initial pruning)     ... 684974 (   0.0 sec)
# of grid points (after weights+screening)   ... 567170 (   1.4 sec)
nearest neighbour list constructed           ...    0.0 sec
Grid point re-assignment to atoms done       ...    0.2 sec
Grid point division into batches done        ...    3.7 sec
Reduced shell lists constructed in    5.2 sec

Total number of grid points                  ...   567170
Total number of batches                      ...     8898
Average number of points per batch           ...       63
Average number of grid points per atom       ...     7366
Average number of shells per batch           ...   338.42 (31.66%)
Average number of basis functions per batch  ...   962.88 (27.85%)
Average number of large shells per batch     ...   201.53 (59.55%)
Average number of large basis fcns per batch ...   576.33 (59.86%)
Maximum spatial batch extension              ...  10.82, 20.64, 11.62 au
Average spatial batch extension              ...   0.03,  0.04,  0.03 au

Final grid set up in    7.4 sec
Final integration                            ... done (  14.7 sec)
Change in XC energy                          ...     0.002524593
Integrated number of electrons               ...   318.000083580
Previous integrated no of electrons          ...   317.998958299
Old exchange energy                            =   -140.541664765 Eh
New exchange energy                            =   -140.540047472 Eh
Exchange energy change after final integration =      0.001617293 Eh
Total energy after final integration           =  -2319.308177270 Eh
Final COS-X integration done in                =   333.224 sec

SMD CDS free energy correction energy :                10.53736     Kcal/mol
Total Energy after SMD CDS correction =             -2319.291384923 Eh
Total Energy       :        -2319.29138492 Eh          -63111.12709 eV
  Last Energy change         ...   -6.8966e-07  Tolerance :   1.0000e-08
  Last MAX-Density change    ...    3.9968e-15  Tolerance :   1.0000e-07
             **** THE GBW FILE WAS UPDATED (orcaSP.gbw) ****
             **** DENSITY FILE WAS UPDATED (orcaSP.scfp) ****
             **** ENERGY FILE WAS UPDATED (orcaSP.en.tmp) ****
             **** THE GBW FILE WAS UPDATED (orcaSP.gbw) ****
             **** DENSITY FILE WAS UPDATED (orcaSP.scfp) ****
----------------
ORBITAL ENERGIES
----------------

  NO   OCC          E(Eh)            E(eV) 
   0   2.0000     -78.291214     -2130.4122 
   1   2.0000     -19.714364      -536.4551 
   2   2.0000     -19.714146      -536.4492 
   3   2.0000     -19.713053      -536.4194 
   4   2.0000     -19.706751      -536.2480 
   5   2.0000     -19.683678      -535.6201 
   6   2.0000     -19.680034      -535.5209 
   7   2.0000     -19.666522      -535.1533 
   8   2.0000     -19.645288      -534.5755 
   9   2.0000     -14.899913      -405.4472 
  10   2.0000     -14.837571      -403.7508 
  11   2.0000     -14.810991      -403.0276 
  12   2.0000     -14.809153      -402.9775 
  13   2.0000     -14.800025      -402.7292 
  14   2.0000     -14.790344      -402.4657 
  15   2.0000     -10.718655      -291.6694 
  16   2.0000     -10.702631      -291.2334 
  17   2.0000     -10.686034      -290.7818 
  18   2.0000     -10.654558      -289.9253 
  19   2.0000     -10.651751      -289.8489 
  20   2.0000     -10.650129      -289.8048 
  21   2.0000     -10.641960      -289.5824 
  22   2.0000     -10.641568      -289.5718 
  23   2.0000     -10.640970      -289.5555 
  24   2.0000     -10.632563      -289.3267 
  25   2.0000     -10.631926      -289.3094 
  26   2.0000     -10.628240      -289.2091 
  27   2.0000     -10.621998      -289.0392 
  28   2.0000     -10.620276      -288.9924 
  29   2.0000     -10.580356      -287.9061 
  30   2.0000     -10.580341      -287.9057 
  31   2.0000     -10.579828      -287.8918 
  32   2.0000     -10.578452      -287.8543 
  33   2.0000     -10.577610      -287.8314 
  34   2.0000     -10.577570      -287.8303 
  35   2.0000     -10.572873      -287.7025 
  36   2.0000     -10.568798      -287.5916 
  37   2.0000     -10.558925      -287.3230 
  38   2.0000     -10.557202      -287.2761 
  39   2.0000     -10.556004      -287.2435 
  40   2.0000     -10.548103      -287.0285 
  41   2.0000     -10.543518      -286.9037 
  42   2.0000      -7.015349      -190.8974 
  43   2.0000      -5.083171      -138.3201 
  44   2.0000      -5.081852      -138.2842 
  45   2.0000      -5.080218      -138.2398 
  46   2.0000      -1.242531       -33.8110 
  47   2.0000      -1.228314       -33.4241 
  48   2.0000      -1.213080       -33.0096 
  49   2.0000      -1.192537       -32.4506 
  50   2.0000      -1.182448       -32.1761 
  51   2.0000      -1.177462       -32.0404 
  52   2.0000      -1.153438       -31.3866 
  53   2.0000      -1.152762       -31.3682 
  54   2.0000      -1.110432       -30.2164 
  55   2.0000      -1.091791       -29.7092 
  56   2.0000      -1.042864       -28.3778 
  57   2.0000      -1.037632       -28.2354 
  58   2.0000      -1.026068       -27.9207 
  59   2.0000      -0.984059       -26.7776 
  60   2.0000      -0.966144       -26.2901 
  61   2.0000      -0.922812       -25.1110 
  62   2.0000      -0.919470       -25.0200 
  63   2.0000      -0.895989       -24.3811 
  64   2.0000      -0.874537       -23.7974 
  65   2.0000      -0.866157       -23.5693 
  66   2.0000      -0.855529       -23.2801 
  67   2.0000      -0.852338       -23.1933 
  68   2.0000      -0.846547       -23.0357 
  69   2.0000      -0.838135       -22.8068 
  70   2.0000      -0.821288       -22.3484 
  71   2.0000      -0.808297       -21.9949 
  72   2.0000      -0.758067       -20.6280 
  73   2.0000      -0.757414       -20.6103 
  74   2.0000      -0.745452       -20.2848 
  75   2.0000      -0.724702       -19.7201 
  76   2.0000      -0.721418       -19.6308 
  77   2.0000      -0.712916       -19.3994 
  78   2.0000      -0.702671       -19.1206 
  79   2.0000      -0.692277       -18.8378 
  80   2.0000      -0.688154       -18.7256 
  81   2.0000      -0.678389       -18.4599 
  82   2.0000      -0.666565       -18.1381 
  83   2.0000      -0.659855       -17.9556 
  84   2.0000      -0.644218       -17.5301 
  85   2.0000      -0.643813       -17.5191 
  86   2.0000      -0.635546       -17.2941 
  87   2.0000      -0.619460       -16.8564 
  88   2.0000      -0.618165       -16.8211 
  89   2.0000      -0.605718       -16.4824 
  90   2.0000      -0.597226       -16.2513 
  91   2.0000      -0.591119       -16.0852 
  92   2.0000      -0.587700       -15.9921 
  93   2.0000      -0.581654       -15.8276 
  94   2.0000      -0.575448       -15.6587 
  95   2.0000      -0.571590       -15.5537 
  96   2.0000      -0.568482       -15.4692 
  97   2.0000      -0.557762       -15.1775 
  98   2.0000      -0.550939       -14.9918 
  99   2.0000      -0.549105       -14.9419 
 100   2.0000      -0.545049       -14.8315 
 101   2.0000      -0.543462       -14.7884 
 102   2.0000      -0.537052       -14.6139 
 103   2.0000      -0.534985       -14.5577 
 104   2.0000      -0.522817       -14.2266 
 105   2.0000      -0.520139       -14.1537 
 106   2.0000      -0.513993       -13.9865 
 107   2.0000      -0.509560       -13.8658 
 108   2.0000      -0.504210       -13.7202 
 109   2.0000      -0.501784       -13.6542 
 110   2.0000      -0.495255       -13.4766 
 111   2.0000      -0.490955       -13.3596 
 112   2.0000      -0.488950       -13.3050 
 113   2.0000      -0.485995       -13.2246 
 114   2.0000      -0.485044       -13.1987 
 115   2.0000      -0.481592       -13.1048 
 116   2.0000      -0.479446       -13.0464 
 117   2.0000      -0.471356       -12.8262 
 118   2.0000      -0.470720       -12.8089 
 119   2.0000      -0.469457       -12.7746 
 120   2.0000      -0.465447       -12.6654 
 121   2.0000      -0.460578       -12.5330 
 122   2.0000      -0.458406       -12.4739 
 123   2.0000      -0.457432       -12.4474 
 124   2.0000      -0.453723       -12.3464 
 125   2.0000      -0.444461       -12.0944 
 126   2.0000      -0.437676       -11.9098 
 127   2.0000      -0.429940       -11.6993 
 128   2.0000      -0.427010       -11.6195 
 129   2.0000      -0.425629       -11.5819 
 130   2.0000      -0.423841       -11.5333 
 131   2.0000      -0.419878       -11.4255 
 132   2.0000      -0.416403       -11.3309 
 133   2.0000      -0.415584       -11.3086 
 134   2.0000      -0.413661       -11.2563 
 135   2.0000      -0.410497       -11.1702 
 136   2.0000      -0.409615       -11.1462 
 137   2.0000      -0.407365       -11.0850 
 138   2.0000      -0.404168       -10.9980 
 139   2.0000      -0.398861       -10.8536 
 140   2.0000      -0.393420       -10.7055 
 141   2.0000      -0.387819       -10.5531 
 142   2.0000      -0.385696       -10.4953 
 143   2.0000      -0.380194       -10.3456 
 144   2.0000      -0.377039       -10.2597 
 145   2.0000      -0.367933       -10.0120 
 146   2.0000      -0.364917        -9.9299 
 147   2.0000      -0.361992        -9.8503 
 148   2.0000      -0.361719        -9.8429 
 149   2.0000      -0.356701        -9.7063 
 150   2.0000      -0.352989        -9.6053 
 151   2.0000      -0.350655        -9.5418 
 152   2.0000      -0.347026        -9.4431 
 153   2.0000      -0.339016        -9.2251 
 154   2.0000      -0.323455        -8.8016 
 155   2.0000      -0.299813        -8.1583 
 156   2.0000      -0.287410        -7.8208 
 157   2.0000      -0.274350        -7.4655 
 158   2.0000      -0.261752        -7.1226 
 159   0.0000      -0.011037        -0.3003 
 160   0.0000       0.015644         0.4257 
 161   0.0000       0.027395         0.7455 
 162   0.0000       0.032966         0.8971 
 163   0.0000       0.038748         1.0544 
 164   0.0000       0.042176         1.1477 
 165   0.0000       0.047818         1.3012 
 166   0.0000       0.054351         1.4790 
 167   0.0000       0.057188         1.5562 
 168   0.0000       0.061780         1.6811 
 169   0.0000       0.062448         1.6993 
 170   0.0000       0.068768         1.8713 
 171   0.0000       0.070395         1.9156 
 172   0.0000       0.074636         2.0310 
 173   0.0000       0.075019         2.0414 
 174   0.0000       0.080476         2.1899 
 175   0.0000       0.086801         2.3620 
 176   0.0000       0.088066         2.3964 
 177   0.0000       0.091476         2.4892 
 178   0.0000       0.094374         2.5680 
 179   0.0000       0.096471         2.6251 
 180   0.0000       0.097891         2.6638 
 181   0.0000       0.101018         2.7488 
 182   0.0000       0.103329         2.8117 
 183   0.0000       0.104687         2.8487 
 184   0.0000       0.110595         3.0094 
 185   0.0000       0.113168         3.0795 
 186   0.0000       0.118417         3.2223 
 187   0.0000       0.119458         3.2506 
 188   0.0000       0.121954         3.3185 
 189   0.0000       0.123979         3.3736 
 190   0.0000       0.127256         3.4628 
 191   0.0000       0.129547         3.5252 
 192   0.0000       0.131818         3.5870 
 193   0.0000       0.135133         3.6772 
 194   0.0000       0.137327         3.7369 
 195   0.0000       0.138325         3.7640 
 196   0.0000       0.143780         3.9125 
 197   0.0000       0.145693         3.9645 
 198   0.0000       0.147315         4.0086 
 199   0.0000       0.152170         4.1408 
 200   0.0000       0.152916         4.1611 
 201   0.0000       0.155586         4.2337 
 202   0.0000       0.157987         4.2990 
 203   0.0000       0.159271         4.3340 
 204   0.0000       0.161048         4.3823 
 205   0.0000       0.163172         4.4401 
 206   0.0000       0.166045         4.5183 
 207   0.0000       0.172607         4.6969 
 208   0.0000       0.174484         4.7479 
 209   0.0000       0.175871         4.7857 
 210   0.0000       0.178419         4.8550 
 211   0.0000       0.179590         4.8869 
 212   0.0000       0.181776         4.9464 
 213   0.0000       0.185491         5.0475 
 214   0.0000       0.186823         5.0837 
 215   0.0000       0.189711         5.1623 
 216   0.0000       0.191860         5.2208 
 217   0.0000       0.192974         5.2511 
 218   0.0000       0.196973         5.3599 
 219   0.0000       0.197555         5.3757 
 220   0.0000       0.199670         5.4333 
 221   0.0000       0.205672         5.5966 
 222   0.0000       0.206616         5.6223 
 223   0.0000       0.209695         5.7061 
 224   0.0000       0.212986         5.7956 
 225   0.0000       0.213843         5.8190 
 226   0.0000       0.215125         5.8539 
 227   0.0000       0.215243         5.8570 
 228   0.0000       0.220710         6.0058 
 229   0.0000       0.222813         6.0631 
 230   0.0000       0.225490         6.1359 
 231   0.0000       0.228193         6.2094 
 232   0.0000       0.230703         6.2778 
 233   0.0000       0.231434         6.2976 
 234   0.0000       0.234519         6.3816 
 235   0.0000       0.235430         6.4064 
 236   0.0000       0.238488         6.4896 
 237   0.0000       0.241528         6.5723 
 238   0.0000       0.244905         6.6642 
 239   0.0000       0.247048         6.7225 
 240   0.0000       0.250886         6.8270 
 241   0.0000       0.251874         6.8538 
 242   0.0000       0.255221         6.9449 
 243   0.0000       0.260241         7.0815 
 244   0.0000       0.261738         7.1222 
 245   0.0000       0.262981         7.1561 
 246   0.0000       0.266388         7.2488 
 247   0.0000       0.266745         7.2585 
 248   0.0000       0.269167         7.3244 
 249   0.0000       0.273238         7.4352 
 250   0.0000       0.275369         7.4932 
 251   0.0000       0.278414         7.5760 
 252   0.0000       0.280944         7.6449 
 253   0.0000       0.283433         7.7126 
 254   0.0000       0.285059         7.7569 
 255   0.0000       0.287670         7.8279 
 256   0.0000       0.290711         7.9107 
 257   0.0000       0.291600         7.9348 
 258   0.0000       0.294039         8.0012 
 259   0.0000       0.295463         8.0400 
 260   0.0000       0.297324         8.0906 
 261   0.0000       0.300573         8.1790 
 262   0.0000       0.301527         8.2050 
 263   0.0000       0.304401         8.2832 
 264   0.0000       0.307816         8.3761 
 265   0.0000       0.310052         8.4370 
 266   0.0000       0.311099         8.4654 
 267   0.0000       0.312662         8.5080 
 268   0.0000       0.315702         8.5907 
 269   0.0000       0.318752         8.6737 
 270   0.0000       0.319367         8.6904 
 271   0.0000       0.319946         8.7062 
 272   0.0000       0.321015         8.7353 
 273   0.0000       0.324071         8.8184 
 274   0.0000       0.325321         8.8524 
 275   0.0000       0.327506         8.9119 
 276   0.0000       0.329503         8.9662 
 277   0.0000       0.330596         8.9960 
 278   0.0000       0.334422         9.1001 
 279   0.0000       0.335930         9.1411 
 280   0.0000       0.336747         9.1634 
 281   0.0000       0.337255         9.1772 
 282   0.0000       0.340722         9.2715 
 283   0.0000       0.345509         9.4018 
 284   0.0000       0.347047         9.4436 
 285   0.0000       0.348523         9.4838 
 286   0.0000       0.349300         9.5049 
 287   0.0000       0.349803         9.5186 
 288   0.0000       0.350598         9.5403 
 289   0.0000       0.354239         9.6393 
 290   0.0000       0.356133         9.6909 
 291   0.0000       0.357282         9.7221 
 292   0.0000       0.359097         9.7715 
 293   0.0000       0.362262         9.8577 
 294   0.0000       0.364186         9.9100 
 295   0.0000       0.364999         9.9321 
 296   0.0000       0.366590         9.9754 
 297   0.0000       0.369607        10.0575 
 298   0.0000       0.370666        10.0863 
 299   0.0000       0.373349        10.1593 
 300   0.0000       0.374246        10.1838 
 301   0.0000       0.376656        10.2493 
 302   0.0000       0.378391        10.2965 
 303   0.0000       0.379800        10.3349 
 304   0.0000       0.381150        10.3716 
 305   0.0000       0.382973        10.4212 
 306   0.0000       0.383645        10.4395 
 307   0.0000       0.385100        10.4791 
 308   0.0000       0.388319        10.5667 
 309   0.0000       0.388887        10.5822 
 310   0.0000       0.392159        10.6712 
 311   0.0000       0.394649        10.7389 
 312   0.0000       0.394863        10.7448 
 313   0.0000       0.398053        10.8316 
 314   0.0000       0.400042        10.8857 
 315   0.0000       0.402659        10.9569 
 316   0.0000       0.404322        11.0022 
 317   0.0000       0.407586        11.0910 
 318   0.0000       0.410143        11.1606 
 319   0.0000       0.412089        11.2135 
 320   0.0000       0.412291        11.2190 
 321   0.0000       0.417836        11.3699 
 322   0.0000       0.417993        11.3742 
 323   0.0000       0.419067        11.4034 
 324   0.0000       0.422522        11.4974 
 325   0.0000       0.423517        11.5245 
 326   0.0000       0.424699        11.5566 
 327   0.0000       0.427860        11.6427 
 328   0.0000       0.429245        11.6803 
 329   0.0000       0.431479        11.7411 
 330   0.0000       0.432950        11.7812 
 331   0.0000       0.433477        11.7955 
 332   0.0000       0.437328        11.9003 
 333   0.0000       0.439597        11.9620 
 334   0.0000       0.441270        12.0076 
 335   0.0000       0.444005        12.0820 
 336   0.0000       0.445494        12.1225 
 337   0.0000       0.447989        12.1904 
 338   0.0000       0.449948        12.2437 
 339   0.0000       0.451358        12.2821 
 340   0.0000       0.454052        12.3554 
 341   0.0000       0.456652        12.4261 
 342   0.0000       0.459548        12.5049 
 343   0.0000       0.461188        12.5496 
 344   0.0000       0.464403        12.6370 
 345   0.0000       0.466489        12.6938 
 346   0.0000       0.470291        12.7973 
 347   0.0000       0.472060        12.8454 
 348   0.0000       0.473253        12.8779 
 349   0.0000       0.474263        12.9053 
 350   0.0000       0.475034        12.9263 
 351   0.0000       0.476189        12.9578 
 352   0.0000       0.481645        13.1062 
 353   0.0000       0.482465        13.1285 
 354   0.0000       0.484778        13.1915 
 355   0.0000       0.487857        13.2753 
 356   0.0000       0.489291        13.3143 
 357   0.0000       0.490140        13.3374 
 358   0.0000       0.494968        13.4688 
 359   0.0000       0.496611        13.5135 
 360   0.0000       0.499747        13.5988 
 361   0.0000       0.502490        13.6734 
 362   0.0000       0.506681        13.7875 
 363   0.0000       0.508192        13.8286 
 364   0.0000       0.509858        13.8739 
 365   0.0000       0.511923        13.9301 
 366   0.0000       0.515028        14.0146 
 367   0.0000       0.517093        14.0708 
 368   0.0000       0.519930        14.1480 
 369   0.0000       0.523791        14.2531 
 370   0.0000       0.527536        14.3550 
 371   0.0000       0.529046        14.3961 
 372   0.0000       0.532622        14.4934 
 373   0.0000       0.533921        14.5287 
 374   0.0000       0.535191        14.5633 
 375   0.0000       0.537001        14.6126 
 376   0.0000       0.543101        14.7785 
 377   0.0000       0.543624        14.7928 
 378   0.0000       0.545825        14.8527 
 379   0.0000       0.546052        14.8588 
 380   0.0000       0.551817        15.0157 
 381   0.0000       0.555514        15.1163 
 382   0.0000       0.557857        15.1800 
 383   0.0000       0.561812        15.2877 
 384   0.0000       0.562895        15.3171 
 385   0.0000       0.563845        15.3430 
 386   0.0000       0.568709        15.4754 
 387   0.0000       0.571132        15.5413 
 388   0.0000       0.572862        15.5884 
 389   0.0000       0.575518        15.6606 
 390   0.0000       0.579970        15.7818 
 391   0.0000       0.582743        15.8572 
 392   0.0000       0.585452        15.9310 
 393   0.0000       0.587697        15.9920 
 394   0.0000       0.588288        16.0081 
 395   0.0000       0.590342        16.0640 
 396   0.0000       0.593693        16.1552 
 397   0.0000       0.597872        16.2689 
 398   0.0000       0.600083        16.3291 
 399   0.0000       0.600427        16.3385 
 400   0.0000       0.601649        16.3717 
 401   0.0000       0.605492        16.4763 
 402   0.0000       0.606565        16.5055 
 403   0.0000       0.610447        16.6111 
 404   0.0000       0.612582        16.6692 
 405   0.0000       0.615938        16.7605 
 406   0.0000       0.618238        16.8231 
 407   0.0000       0.620060        16.8727 
 408   0.0000       0.623726        16.9724 
 409   0.0000       0.624307        16.9883 
 410   0.0000       0.628065        17.0905 
 411   0.0000       0.629430        17.1277 
 412   0.0000       0.632282        17.2053 
 413   0.0000       0.634401        17.2629 
 414   0.0000       0.636267        17.3137 
 415   0.0000       0.638493        17.3743 
 416   0.0000       0.640051        17.4167 
 417   0.0000       0.645722        17.5710 
 418   0.0000       0.648957        17.6590 
 419   0.0000       0.656814        17.8728 
 420   0.0000       0.657891        17.9021 
 421   0.0000       0.661335        17.9958 
 422   0.0000       0.663363        18.0510 
 423   0.0000       0.664901        18.0929 
 424   0.0000       0.666791        18.1443 
 425   0.0000       0.670090        18.2341 
 426   0.0000       0.672005        18.2862 
 427   0.0000       0.673907        18.3379 
 428   0.0000       0.675523        18.3819 
 429   0.0000       0.678475        18.4622 
 430   0.0000       0.681912        18.5558 
 431   0.0000       0.685460        18.6523 
 432   0.0000       0.688163        18.7259 
 433   0.0000       0.689417        18.7600 
 434   0.0000       0.692808        18.8523 
 435   0.0000       0.695729        18.9318 
 436   0.0000       0.696904        18.9637 
 437   0.0000       0.698665        19.0116 
 438   0.0000       0.700672        19.0663 
 439   0.0000       0.703967        19.1559 
 440   0.0000       0.706896        19.2356 
 441   0.0000       0.707802        19.2603 
 442   0.0000       0.710016        19.3205 
 443   0.0000       0.712347        19.3839 
 444   0.0000       0.714505        19.4427 
 445   0.0000       0.717736        19.5306 
 446   0.0000       0.720749        19.6126 
 447   0.0000       0.726626        19.7725 
 448   0.0000       0.730570        19.8798 
 449   0.0000       0.731302        19.8997 
 450   0.0000       0.732856        19.9420 
 451   0.0000       0.735558        20.0156 
 452   0.0000       0.738692        20.1008 
 453   0.0000       0.740882        20.1604 
 454   0.0000       0.743145        20.2220 
 455   0.0000       0.744015        20.2457 
 456   0.0000       0.746305        20.3080 
 457   0.0000       0.748390        20.3647 
 458   0.0000       0.751339        20.4450 
 459   0.0000       0.754360        20.5272 
 460   0.0000       0.759105        20.6563 
 461   0.0000       0.759395        20.6642 
 462   0.0000       0.761059        20.7095 
 463   0.0000       0.763477        20.7753 
 464   0.0000       0.768639        20.9157 
 465   0.0000       0.770664        20.9708 
 466   0.0000       0.772688        21.0259 
 467   0.0000       0.776324        21.1249 
 468   0.0000       0.778901        21.1950 
 469   0.0000       0.783183        21.3115 
 470   0.0000       0.786061        21.3898 
 471   0.0000       0.787604        21.4318 
 472   0.0000       0.792992        21.5784 
 473   0.0000       0.793678        21.5971 
 474   0.0000       0.795975        21.6596 
 475   0.0000       0.797696        21.7064 
 476   0.0000       0.800179        21.7740 
 477   0.0000       0.802101        21.8263 
 478   0.0000       0.806219        21.9383 
 479   0.0000       0.808085        21.9891 
 480   0.0000       0.810688        22.0599 
 481   0.0000       0.812262        22.1028 
 482   0.0000       0.814540        22.1648 
 483   0.0000       0.816714        22.2239 
 484   0.0000       0.819792        22.3077 
 485   0.0000       0.822369        22.3778 
 486   0.0000       0.825491        22.4627 
 487   0.0000       0.827327        22.5127 
 488   0.0000       0.829120        22.5615 
 489   0.0000       0.834448        22.7065 
 490   0.0000       0.835281        22.7292 
 491   0.0000       0.836579        22.7645 
 492   0.0000       0.841773        22.9058 
 493   0.0000       0.843202        22.9447 
 494   0.0000       0.844803        22.9883 
 495   0.0000       0.848477        23.0882 
 496   0.0000       0.852717        23.2036 
 497   0.0000       0.854331        23.2475 
 498   0.0000       0.857108        23.3231 
 499   0.0000       0.859424        23.3861 
 500   0.0000       0.861120        23.4323 
 501   0.0000       0.863977        23.5100 
 502   0.0000       0.864761        23.5313 
 503   0.0000       0.869063        23.6484 
 504   0.0000       0.870648        23.6915 
 505   0.0000       0.871925        23.7263 
 506   0.0000       0.875049        23.8113 
 507   0.0000       0.876257        23.8442 
 508   0.0000       0.877970        23.8908 
 509   0.0000       0.879863        23.9423 
 510   0.0000       0.880666        23.9641 
 511   0.0000       0.882917        24.0254 
 512   0.0000       0.889307        24.1993 
 513   0.0000       0.890068        24.2200 
 514   0.0000       0.892283        24.2803 
 515   0.0000       0.893227        24.3060 
 516   0.0000       0.896877        24.4053 
 517   0.0000       0.898501        24.4495 
 518   0.0000       0.899211        24.4688 
 519   0.0000       0.901040        24.5185 
 520   0.0000       0.903717        24.5914 
 521   0.0000       0.905763        24.6471 
 522   0.0000       0.909647        24.7528 
 523   0.0000       0.912115        24.8199 
 524   0.0000       0.912565        24.8322 
 525   0.0000       0.914100        24.8739 
 526   0.0000       0.917087        24.9552 
 527   0.0000       0.918711        24.9994 
 528   0.0000       0.920667        25.0526 
 529   0.0000       0.924085        25.1456 
 530   0.0000       0.927478        25.2380 
 531   0.0000       0.929450        25.2916 
 532   0.0000       0.931426        25.3454 
 533   0.0000       0.931899        25.3583 
 534   0.0000       0.933997        25.4153 
 535   0.0000       0.938242        25.5309 
 536   0.0000       0.941643        25.6234 
 537   0.0000       0.941775        25.6270 
 538   0.0000       0.945861        25.7382 
 539   0.0000       0.946665        25.7601 
 540   0.0000       0.947065        25.7709 
 541   0.0000       0.951230        25.8843 
 542   0.0000       0.952607        25.9218 
 543   0.0000       0.955245        25.9935 
 544   0.0000       0.956337        26.0233 
 545   0.0000       0.958000        26.0685 
 546   0.0000       0.960753        26.1434 
 547   0.0000       0.962574        26.1930 
 548   0.0000       0.963330        26.2135 
 549   0.0000       0.967368        26.3234 
 550   0.0000       0.968123        26.3440 
 551   0.0000       0.970240        26.4016 
 552   0.0000       0.971702        26.4413 
 553   0.0000       0.975133        26.5347 
 554   0.0000       0.978086        26.6151 
 555   0.0000       0.979822        26.6623 
 556   0.0000       0.981422        26.7059 
 557   0.0000       0.983701        26.7679 
 558   0.0000       0.986133        26.8340 
 559   0.0000       0.987626        26.8747 
 560   0.0000       0.992775        27.0148 
 561   0.0000       0.994041        27.0492 
 562   0.0000       0.996352        27.1121 
 563   0.0000       1.000397        27.2222 
 564   0.0000       1.002646        27.2834 
 565   0.0000       1.003627        27.3101 
 566   0.0000       1.007026        27.4026 
 567   0.0000       1.009053        27.4577 
 568   0.0000       1.011062        27.5124 
 569   0.0000       1.014120        27.5956 
 570   0.0000       1.014194        27.5976 
 571   0.0000       1.016789        27.6682 
 572   0.0000       1.019593        27.7445 
 573   0.0000       1.021653        27.8006 
 574   0.0000       1.024385        27.8749 
 575   0.0000       1.025754        27.9122 
 576   0.0000       1.030605        28.0442 
 577   0.0000       1.031783        28.0763 
 578   0.0000       1.035213        28.1696 
 579   0.0000       1.035981        28.1905 
 580   0.0000       1.038481        28.2585 
 581   0.0000       1.041356        28.3367 
 582   0.0000       1.046060        28.4647 
 583   0.0000       1.047105        28.4932 
 584   0.0000       1.048755        28.5381 
 585   0.0000       1.052629        28.6435 
 586   0.0000       1.054052        28.6822 
 587   0.0000       1.057236        28.7688 
 588   0.0000       1.060706        28.8633 
 589   0.0000       1.061568        28.8867 
 590   0.0000       1.064415        28.9642 
 591   0.0000       1.068020        29.0623 
 592   0.0000       1.069492        29.1024 
 593   0.0000       1.071268        29.1507 
 594   0.0000       1.073029        29.1986 
 595   0.0000       1.074734        29.2450 
 596   0.0000       1.078305        29.3422 
 597   0.0000       1.080464        29.4009 
 598   0.0000       1.081191        29.4207 
 599   0.0000       1.085388        29.5349 
 600   0.0000       1.088066        29.6078 
 601   0.0000       1.088186        29.6111 
 602   0.0000       1.092199        29.7203 
 603   0.0000       1.094717        29.7888 
 604   0.0000       1.097284        29.8586 
 605   0.0000       1.099455        29.9177 
 606   0.0000       1.101673        29.9780 
 607   0.0000       1.106076        30.0979 
 608   0.0000       1.108342        30.1595 
 609   0.0000       1.112479        30.2721 
 610   0.0000       1.113274        30.2937 
 611   0.0000       1.115275        30.3482 
 612   0.0000       1.117235        30.4015 
 613   0.0000       1.117938        30.4206 
 614   0.0000       1.119915        30.4744 
 615   0.0000       1.124591        30.6017 
 616   0.0000       1.127769        30.6881 
 617   0.0000       1.131011        30.7764 
 618   0.0000       1.132575        30.8189 
 619   0.0000       1.135041        30.8860 
 620   0.0000       1.137382        30.9497 
 621   0.0000       1.140756        31.0415 
 622   0.0000       1.142038        31.0764 
 623   0.0000       1.143633        31.1198 
 624   0.0000       1.145504        31.1707 
 625   0.0000       1.150055        31.2946 
 626   0.0000       1.152774        31.3686 
 627   0.0000       1.155578        31.4449 
 628   0.0000       1.158617        31.5276 
 629   0.0000       1.159633        31.5552 
 630   0.0000       1.161607        31.6089 
 631   0.0000       1.164361        31.6839 
 632   0.0000       1.165708        31.7205 
 633   0.0000       1.168209        31.7886 
 634   0.0000       1.171529        31.8789 
 635   0.0000       1.174290        31.9540 
 636   0.0000       1.176660        32.0186 
 637   0.0000       1.178778        32.0762 
 638   0.0000       1.179184        32.0872 
 639   0.0000       1.182364        32.1738 
 640   0.0000       1.186363        32.2826 
 641   0.0000       1.187745        32.3202 
 642   0.0000       1.188874        32.3509 
 643   0.0000       1.191570        32.4243 
 644   0.0000       1.194678        32.5088 
 645   0.0000       1.202470        32.7209 
 646   0.0000       1.203520        32.7494 
 647   0.0000       1.204789        32.7840 
 648   0.0000       1.207560        32.8594 
 649   0.0000       1.210182        32.9307 
 650   0.0000       1.210967        32.9521 
 651   0.0000       1.212303        32.9884 
 652   0.0000       1.215981        33.0885 
 653   0.0000       1.217458        33.1287 
 654   0.0000       1.220127        33.2013 
 655   0.0000       1.223661        33.2975 
 656   0.0000       1.225240        33.3405 
 657   0.0000       1.225698        33.3529 
 658   0.0000       1.230537        33.4846 
 659   0.0000       1.231857        33.5205 
 660   0.0000       1.235340        33.6153 
 661   0.0000       1.238624        33.7047 
 662   0.0000       1.241935        33.7948 
 663   0.0000       1.244344        33.8603 
 664   0.0000       1.247474        33.9455 
 665   0.0000       1.248678        33.9783 
 666   0.0000       1.250244        34.0209 
 667   0.0000       1.252485        34.0819 
 668   0.0000       1.254027        34.1238 
 669   0.0000       1.257187        34.2098 
 670   0.0000       1.257909        34.2294 
 671   0.0000       1.260750        34.3067 
 672   0.0000       1.263291        34.3759 
 673   0.0000       1.265453        34.4347 
 674   0.0000       1.271401        34.5966 
 675   0.0000       1.272039        34.6139 
 676   0.0000       1.277242        34.7555 
 677   0.0000       1.279632        34.8206 
 678   0.0000       1.281231        34.8641 
 679   0.0000       1.283745        34.9325 
 680   0.0000       1.286955        35.0198 
 681   0.0000       1.290631        35.1198 
 682   0.0000       1.292066        35.1589 
 683   0.0000       1.297013        35.2935 
 684   0.0000       1.298121        35.3237 
 685   0.0000       1.301156        35.4063 
 686   0.0000       1.304969        35.5100 
 687   0.0000       1.307491        35.5786 
 688   0.0000       1.310469        35.6597 
 689   0.0000       1.312076        35.7034 
 690   0.0000       1.314742        35.7760 
 691   0.0000       1.316796        35.8318 
 692   0.0000       1.320608        35.9356 
 693   0.0000       1.322271        35.9808 
 694   0.0000       1.325155        36.0593 
 695   0.0000       1.325999        36.0823 
 696   0.0000       1.328145        36.1407 
 697   0.0000       1.332033        36.2465 
 698   0.0000       1.335560        36.3424 
 699   0.0000       1.338504        36.4225 
 700   0.0000       1.343079        36.5470 
 701   0.0000       1.343577        36.5606 
 702   0.0000       1.348079        36.6831 
 703   0.0000       1.349366        36.7181 
 704   0.0000       1.352925        36.8150 
 705   0.0000       1.354517        36.8583 
 706   0.0000       1.359229        36.9865 
 707   0.0000       1.361575        37.0503 
 708   0.0000       1.363121        37.0924 
 709   0.0000       1.363424        37.1007 
 710   0.0000       1.368335        37.2343 
 711   0.0000       1.372267        37.3413 
 712   0.0000       1.374473        37.4013 
 713   0.0000       1.379659        37.5424 
 714   0.0000       1.381192        37.5842 
 715   0.0000       1.383188        37.6385 
 716   0.0000       1.388450        37.7817 
 717   0.0000       1.391084        37.8533 
 718   0.0000       1.395762        37.9806 
 719   0.0000       1.398597        38.0578 
 720   0.0000       1.400329        38.1049 
 721   0.0000       1.401932        38.1485 
 722   0.0000       1.403844        38.2005 
 723   0.0000       1.406336        38.2684 
 724   0.0000       1.410235        38.3744 
 725   0.0000       1.413385        38.4602 
 726   0.0000       1.413780        38.4709 
 727   0.0000       1.415056        38.5056 
 728   0.0000       1.420036        38.6412 
 729   0.0000       1.423267        38.7291 
 730   0.0000       1.425388        38.7868 
 731   0.0000       1.429738        38.9051 
 732   0.0000       1.432067        38.9685 
 733   0.0000       1.435710        39.0677 
 734   0.0000       1.438518        39.1441 
 735   0.0000       1.439835        39.1799 
 736   0.0000       1.443073        39.2680 
 737   0.0000       1.445426        39.3320 
 738   0.0000       1.447950        39.4007 
 739   0.0000       1.454072        39.5673 
 740   0.0000       1.456249        39.6265 
 741   0.0000       1.458248        39.6810 
 742   0.0000       1.459684        39.7200 
 743   0.0000       1.463676        39.8286 
 744   0.0000       1.467923        39.9442 
 745   0.0000       1.470088        40.0031 
 746   0.0000       1.472284        40.0629 
 747   0.0000       1.477845        40.2142 
 748   0.0000       1.479886        40.2698 
 749   0.0000       1.481525        40.3143 
 750   0.0000       1.484956        40.4077 
 751   0.0000       1.486134        40.4398 
 752   0.0000       1.487977        40.4899 
 753   0.0000       1.491173        40.5769 
 754   0.0000       1.493235        40.6330 
 755   0.0000       1.496454        40.7206 
 756   0.0000       1.497259        40.7425 
 757   0.0000       1.501879        40.8682 
 758   0.0000       1.508369        41.0448 
 759   0.0000       1.508552        41.0498 
 760   0.0000       1.512189        41.1487 
 761   0.0000       1.513733        41.1908 
 762   0.0000       1.516855        41.2757 
 763   0.0000       1.517990        41.3066 
 764   0.0000       1.520299        41.3695 
 765   0.0000       1.523111        41.4460 
 766   0.0000       1.526463        41.5372 
 767   0.0000       1.531247        41.6673 
 768   0.0000       1.536015        41.7971 
 769   0.0000       1.538003        41.8512 
 770   0.0000       1.540629        41.9227 
 771   0.0000       1.543344        41.9965 
 772   0.0000       1.545879        42.0655 
 773   0.0000       1.548406        42.1343 
 774   0.0000       1.549609        42.1670 
 775   0.0000       1.554249        42.2933 
 776   0.0000       1.555346        42.3231 
 777   0.0000       1.559230        42.4288 
 778   0.0000       1.560668        42.4679 
 779   0.0000       1.565252        42.5927 
 780   0.0000       1.570136        42.7256 
 781   0.0000       1.572065        42.7781 
 782   0.0000       1.575088        42.8603 
 783   0.0000       1.579313        42.9753 
 784   0.0000       1.579690        42.9856 
 785   0.0000       1.582154        43.0526 
 786   0.0000       1.584247        43.1096 
 787   0.0000       1.586017        43.1577 
 788   0.0000       1.589991        43.2659 
 789   0.0000       1.593178        43.3526 
 790   0.0000       1.594632        43.3922 
 791   0.0000       1.599852        43.5342 
 792   0.0000       1.605922        43.6994 
 793   0.0000       1.608042        43.7570 
 794   0.0000       1.611226        43.8437 
 795   0.0000       1.614928        43.9444 
 796   0.0000       1.615524        43.9607 
 797   0.0000       1.620219        44.0884 
 798   0.0000       1.622685        44.1555 
 799   0.0000       1.623455        44.1765 
 800   0.0000       1.629570        44.3429 
 801   0.0000       1.630535        44.3691 
 802   0.0000       1.634240        44.4699 
 803   0.0000       1.637877        44.5689 
 804   0.0000       1.642627        44.6981 
 805   0.0000       1.644025        44.7362 
 806   0.0000       1.645210        44.7684 
 807   0.0000       1.649389        44.8822 
 808   0.0000       1.652589        44.9692 
 809   0.0000       1.658073        45.1184 
 810   0.0000       1.658728        45.1363 
 811   0.0000       1.659881        45.1677 
 812   0.0000       1.661510        45.2120 
 813   0.0000       1.665559        45.3222 
 814   0.0000       1.667941        45.3870 
 815   0.0000       1.669327        45.4247 
 816   0.0000       1.671957        45.4963 
 817   0.0000       1.673926        45.5498 
 818   0.0000       1.678834        45.6834 
 819   0.0000       1.683189        45.8019 
 820   0.0000       1.686668        45.8966 
 821   0.0000       1.687768        45.9265 
 822   0.0000       1.689702        45.9791 
 823   0.0000       1.690575        46.0029 
 824   0.0000       1.695328        46.1322 
 825   0.0000       1.698464        46.2175 
 826   0.0000       1.701434        46.2984 
 827   0.0000       1.703350        46.3505 
 828   0.0000       1.709181        46.5092 
 829   0.0000       1.713052        46.6145 
 830   0.0000       1.713133        46.6167 
 831   0.0000       1.719305        46.7847 
 832   0.0000       1.721538        46.8454 
 833   0.0000       1.726687        46.9855 
 834   0.0000       1.727984        47.0208 
 835   0.0000       1.731438        47.1148 
 836   0.0000       1.737527        47.2805 
 837   0.0000       1.739372        47.3307 
 838   0.0000       1.739964        47.3468 
 839   0.0000       1.744205        47.4622 
 840   0.0000       1.747448        47.5505 
 841   0.0000       1.748853        47.5887 
 842   0.0000       1.750518        47.6340 
 843   0.0000       1.752281        47.6820 
 844   0.0000       1.758405        47.8486 
 845   0.0000       1.761423        47.9308 
 846   0.0000       1.763241        47.9802 
 847   0.0000       1.767673        48.1008 
 848   0.0000       1.769087        48.1393 
 849   0.0000       1.774589        48.2890 
 850   0.0000       1.779873        48.4328 
 851   0.0000       1.780365        48.4462 
 852   0.0000       1.784546        48.5600 
 853   0.0000       1.786177        48.6043 
 854   0.0000       1.789640        48.6986 
 855   0.0000       1.793923        48.8151 
 856   0.0000       1.795199        48.8498 
 857   0.0000       1.797988        48.9258 
 858   0.0000       1.800682        48.9990 
 859   0.0000       1.804400        49.1002 
 860   0.0000       1.809026        49.2261 
 861   0.0000       1.813264        49.3414 
 862   0.0000       1.815291        49.3966 
 863   0.0000       1.815859        49.4120 
 864   0.0000       1.821245        49.5586 
 865   0.0000       1.824845        49.6566 
 866   0.0000       1.829299        49.7778 
 867   0.0000       1.831462        49.8366 
 868   0.0000       1.836379        49.9704 
 869   0.0000       1.838465        50.0272 
 870   0.0000       1.840615        50.0857 
 871   0.0000       1.843380        50.1609 
 872   0.0000       1.847978        50.2860 
 873   0.0000       1.849702        50.3329 
 874   0.0000       1.850518        50.3552 
 875   0.0000       1.853805        50.4446 
 876   0.0000       1.858503        50.5724 
 877   0.0000       1.862581        50.6834 
 878   0.0000       1.865593        50.7654 
 879   0.0000       1.871478        50.9255 
 880   0.0000       1.875224        51.0274 
 881   0.0000       1.876397        51.0594 
 882   0.0000       1.883436        51.2509 
 883   0.0000       1.884512        51.2802 
 884   0.0000       1.888773        51.3961 
 885   0.0000       1.890119        51.4328 
 886   0.0000       1.894134        51.5420 
 887   0.0000       1.896717        51.6123 
 888   0.0000       1.899819        51.6967 
 889   0.0000       1.903831        51.8059 
 890   0.0000       1.909163        51.9510 
 891   0.0000       1.912252        52.0350 
 892   0.0000       1.913237        52.0618 
 893   0.0000       1.915388        52.1204 
 894   0.0000       1.917598        52.1805 
 895   0.0000       1.920907        52.2705 
 896   0.0000       1.922648        52.3179 
 897   0.0000       1.926315        52.4177 
 898   0.0000       1.927155        52.4406 
 899   0.0000       1.933379        52.6099 
 900   0.0000       1.937482        52.7216 
 901   0.0000       1.941243        52.8239 
 902   0.0000       1.941419        52.8287 
 903   0.0000       1.945993        52.9532 
 904   0.0000       1.946908        52.9781 
 905   0.0000       1.951339        53.0986 
 906   0.0000       1.953558        53.1590 
 907   0.0000       1.956184        53.2305 
 908   0.0000       1.959635        53.3244 
 909   0.0000       1.963008        53.4162 
 910   0.0000       1.967612        53.5414 
 911   0.0000       1.971015        53.6340 
 912   0.0000       1.974464        53.7279 
 913   0.0000       1.978479        53.8371 
 914   0.0000       1.979912        53.8761 
 915   0.0000       1.981168        53.9103 
 916   0.0000       1.984016        53.9878 
 917   0.0000       1.987277        54.0766 
 918   0.0000       1.993460        54.2448 
 919   0.0000       1.996278        54.3215 
 920   0.0000       1.996910        54.3387 
 921   0.0000       1.999203        54.4011 
 922   0.0000       2.005120        54.5621 
 923   0.0000       2.005567        54.5743 
 924   0.0000       2.007498        54.6268 
 925   0.0000       2.011165        54.7266 
 926   0.0000       2.015140        54.8348 
 927   0.0000       2.017864        54.9089 
 928   0.0000       2.020847        54.9900 
 929   0.0000       2.021318        55.0029 
 930   0.0000       2.024275        55.0833 
 931   0.0000       2.025762        55.1238 
 932   0.0000       2.034238        55.3544 
 933   0.0000       2.036903        55.4270 
 934   0.0000       2.038869        55.4804 
 935   0.0000       2.041116        55.5416 
 936   0.0000       2.042307        55.5740 
 937   0.0000       2.045745        55.6675 
 938   0.0000       2.047935        55.7271 
 939   0.0000       2.050299        55.7915 
 940   0.0000       2.053437        55.8769 
 941   0.0000       2.053848        55.8880 
 942   0.0000       2.059457        56.0407 
 943   0.0000       2.060825        56.0779 
 944   0.0000       2.062243        56.1165 
 945   0.0000       2.064807        56.1862 
 946   0.0000       2.067037        56.2469 
 947   0.0000       2.068382        56.2835 
 948   0.0000       2.072532        56.3965 
 949   0.0000       2.075902        56.4882 
 950   0.0000       2.077777        56.5392 
 951   0.0000       2.082414        56.6654 
 952   0.0000       2.085217        56.7416 
 953   0.0000       2.087706        56.8094 
 954   0.0000       2.087944        56.8158 
 955   0.0000       2.091813        56.9211 
 956   0.0000       2.094579        56.9964 
 957   0.0000       2.099123        57.1201 
 958   0.0000       2.103253        57.2324 
 959   0.0000       2.106260        57.3142 
 960   0.0000       2.108603        57.3780 
 961   0.0000       2.109736        57.4088 
 962   0.0000       2.113696        57.5166 
 963   0.0000       2.116773        57.6003 
 964   0.0000       2.118585        57.6496 
 965   0.0000       2.121171        57.7200 
 966   0.0000       2.124165        57.8015 
 967   0.0000       2.126163        57.8558 
[...]
 3209   0.0000      11.405527       310.3602 
 3210   0.0000      11.446744       311.4818 
 3211   0.0000      11.462515       311.9109 
 3212   0.0000      11.479962       312.3856 
 3213   0.0000      11.485345       312.5321 
 3214   0.0000      11.499236       312.9101 
 3215   0.0000      11.502544       313.0001 
 3216   0.0000      11.523304       313.5650 
 3217   0.0000      11.530286       313.7550 
 3218   0.0000      11.550950       314.3173 
 3219   0.0000      11.568195       314.7866 
 3220   0.0000      11.595398       315.5268 
 3221   0.0000      11.610469       315.9369 
 3222   0.0000      11.623428       316.2895 
 3223   0.0000      11.645357       316.8863 
 3224   0.0000      11.660392       317.2954 
 3225   0.0000      11.670723       317.5765 
 3226   0.0000      11.709041       318.6192 
 3227   0.0000      11.729503       319.1760 
 3228   0.0000      11.737346       319.3894 
 3229   0.0000      11.776880       320.4652 
 3230   0.0000      11.784767       320.6798 
 3231   0.0000      11.788860       320.7912 
 3232   0.0000      11.812885       321.4449 
 3233   0.0000      11.815003       321.5026 
 3234   0.0000      11.825847       321.7977 
 3235   0.0000      11.837642       322.1186 
 3236   0.0000      11.842857       322.2605 
 3237   0.0000      11.847503       322.3869 
 3238   0.0000      11.870862       323.0226 
 3239   0.0000      11.878499       323.2304 
 3240   0.0000      11.885906       323.4319 
 3241   0.0000      11.889594       323.5323 
 3242   0.0000      11.936241       324.8016 
 3243   0.0000      11.940927       324.9292 
 3244   0.0000      11.952272       325.2378 
 3245   0.0000      11.988310       326.2185 
 3246   0.0000      11.990565       326.2799 
 3247   0.0000      12.021863       327.1315 
 3248   0.0000      12.037717       327.5629 
 3249   0.0000      12.046615       327.8051 
 3250   0.0000      12.059371       328.1522 
 3251   0.0000      12.069019       328.4147 
 3252   0.0000      12.104048       329.3679 
 3253   0.0000      12.110999       329.5570 
 3254   0.0000      12.149906       330.6158 
 3255   0.0000      12.153538       330.7146 
 3256   0.0000      12.165158       331.0308 
 3257   0.0000      12.166297       331.0618 
 3258   0.0000      12.172378       331.2272 
 3259   0.0000      12.198176       331.9292 
 3260   0.0000      12.213175       332.3374 
 3261   0.0000      12.216153       332.4184 
 3262   0.0000      12.220200       332.5285 
 3263   0.0000      12.243723       333.1686 
 3264   0.0000      12.249845       333.3352 
 3265   0.0000      12.255921       333.5006 
 3266   0.0000      12.266655       333.7926 
 3267   0.0000      12.277064       334.0759 
 3268   0.0000      12.287994       334.3733 
 3269   0.0000      12.300028       334.7008 
 3270   0.0000      12.328180       335.4668 
 3271   0.0000      12.329449       335.5014 
 3272   0.0000      12.341840       335.8385 
 3273   0.0000      12.350543       336.0754 
 3274   0.0000      12.363546       336.4292 
 3275   0.0000      12.373759       336.7071 
 3276   0.0000      12.378313       336.8310 
 3277   0.0000      12.381634       336.9214 
 3278   0.0000      12.402347       337.4850 
 3279   0.0000      12.413859       337.7983 
 3280   0.0000      12.424210       338.0799 
 3281   0.0000      12.439191       338.4876 
 3282   0.0000      12.463914       339.1603 
 3283   0.0000      12.473407       339.4187 
 3284   0.0000      12.491682       339.9159 
 3285   0.0000      12.492437       339.9365 
 3286   0.0000      12.498896       340.1122 
 3287   0.0000      12.523044       340.7693 
 3288   0.0000      12.530458       340.9711 
 3289   0.0000      12.538625       341.1933 
 3290   0.0000      12.555092       341.6414 
 3291   0.0000      12.578439       342.2767 
 3292   0.0000      12.582893       342.3979 
 3293   0.0000      12.594274       342.7076 
 3294   0.0000      12.632877       343.7581 
 3295   0.0000      12.654259       344.3399 
 3296   0.0000      12.675070       344.9062 
 3297   0.0000      12.675558       344.9195 
 3298   0.0000      12.689483       345.2984 
 3299   0.0000      12.714484       345.9787 
 3300   0.0000      12.726544       346.3069 
 3301   0.0000      12.745047       346.8104 
 3302   0.0000      12.770024       347.4900 
 3303   0.0000      12.780162       347.7659 
 3304   0.0000      12.798017       348.2517 
 3305   0.0000      12.820843       348.8729 
 3306   0.0000      12.825506       348.9998 
 3307   0.0000      12.835121       349.2614 
 3308   0.0000      12.835933       349.2835 
 3309   0.0000      12.844195       349.5083 
 3310   0.0000      12.865827       350.0969 
 3311   0.0000      12.877563       350.4163 
 3312   0.0000      12.885576       350.6344 
 3313   0.0000      12.895639       350.9082 
 3314   0.0000      12.902941       351.1069 
 3315   0.0000      12.913936       351.4061 
 3316   0.0000      12.946119       352.2818 
 3317   0.0000      12.961830       352.7093 
 3318   0.0000      12.974187       353.0456 
 3319   0.0000      12.984944       353.3383 
 3320   0.0000      13.022768       354.3675 
 3321   0.0000      13.054931       355.2427 
 3322   0.0000      13.119671       357.0044 
 3323   0.0000      13.132563       357.3552 
 3324   0.0000      13.141120       357.5881 
 3325   0.0000      13.163785       358.2048 
 3326   0.0000      13.191628       358.9624 
 3327   0.0000      13.201077       359.2196 
 3328   0.0000      13.221379       359.7720 
 3329   0.0000      13.226433       359.9095 
 3330   0.0000      13.235754       360.1632 
 3331   0.0000      13.248749       360.5168 
 3332   0.0000      13.264389       360.9424 
 3333   0.0000      13.273090       361.1791 
 3334   0.0000      13.324800       362.5862 
 3335   0.0000      13.326875       362.6427 
 3336   0.0000      13.359831       363.5395 
 3337   0.0000      13.365648       363.6978 
 3338   0.0000      13.373630       363.9150 
 3339   0.0000      13.389067       364.3350 
 3340   0.0000      13.404210       364.7471 
 3341   0.0000      13.424603       365.3020 
 3342   0.0000      13.438440       365.6786 
 3343   0.0000      13.450342       366.0024 
 3344   0.0000      13.522849       367.9754 
 3345   0.0000      13.587120       369.7243 
 3346   0.0000      13.607609       370.2819 
 3347   0.0000      13.658342       371.6624 
 3348   0.0000      13.790563       375.2603 
 3349   0.0000      13.843186       376.6923 
 3350   0.0000      13.918486       378.7413 
 3351   0.0000      13.935951       379.2165 
 3352   0.0000      14.055980       382.4826 
 3353   0.0000      14.149982       385.0406 
 3354   0.0000      14.181287       385.8924 
 3355   0.0000      14.444914       393.0661 
 3356   0.0000      14.483930       394.1278 
 3357   0.0000      14.668116       399.1397 
 3358   0.0000      14.678092       399.4112 
 3359   0.0000      14.683173       399.5495 
 3360   0.0000      14.820245       403.2794 
 3361   0.0000      14.880102       404.9082 
 3362   0.0000      14.891094       405.2073 
 3363   0.0000      15.002585       408.2411 
 3364   0.0000      15.047231       409.4560 
 3365   0.0000      15.120600       411.4525 
 3366   0.0000      15.241233       414.7350 
 3367   0.0000      16.721780       455.0228 
 3368   0.0000      16.749940       455.7890 
 3369   0.0000      19.584586       532.9237 
 3370   0.0000      19.657958       534.9202 
 3371   0.0000      19.836757       539.7856 
 3372   0.0000      21.497094       584.9657 
 3373   0.0000      28.418547       773.3080 
 3374   0.0000      28.518398       776.0251 
 3375   0.0000      28.767156       782.7941 
 3376   0.0000      28.784030       783.2533 
 3377   0.0000      28.809287       783.9406 
 3378   0.0000      28.885744       786.0211 
 3379   0.0000      28.901651       786.4539 
 3380   0.0000      29.020942       789.7000 
 3381   0.0000      29.083177       791.3935 
 3382   0.0000      29.198805       794.5399 
 3383   0.0000      29.217787       795.0564 
 3384   0.0000      29.233864       795.4939 
 3385   0.0000      29.261838       796.2551 
 3386   0.0000      29.270227       796.4834 
 3387   0.0000      29.292082       797.0781 
 3388   0.0000      29.316799       797.7507 
 3389   0.0000      29.325058       797.9754 
 3390   0.0000      29.366753       799.1100 
 3391   0.0000      29.381579       799.5134 
 3392   0.0000      29.400739       800.0348 
 3393   0.0000      29.407671       800.2234 
 3394   0.0000      29.438722       801.0684 
 3395   0.0000      29.461810       801.6966 
 3396   0.0000      29.465015       801.7838 
 3397   0.0000      29.489138       802.4402 
 3398   0.0000      29.542679       803.8972 
 3399   0.0000      29.618140       805.9506 
 3400   0.0000      38.055183      1035.5342 
 3401   0.0000      38.108177      1036.9762 
 3402   0.0000      38.304374      1042.3150 
 3403   0.0000      38.428114      1045.6822 
 3404   0.0000      38.476879      1047.0091 
 3405   0.0000      38.636051      1051.3404 
 3406   0.0000      48.675230      1324.5203 
 3407   0.0000      48.725985      1325.9015 
 3408   0.0000      48.872577      1329.8904 
 3409   0.0000      48.900280      1330.6443 
 3410   0.0000      48.925341      1331.3262 
 3411   0.0000      48.933312      1331.5431 
 3412   0.0000      48.993714      1333.1867 
 3413   0.0000      49.053327      1334.8089 
 3414   0.0000      71.812029      1954.1047 
 3415   0.0000     147.993803      4027.1161 
 3416   0.0000     148.081985      4029.5157 
 3417   0.0000     148.302952      4035.5285 
 3418   0.0000     148.326024      4036.1563 
 3419   0.0000     148.359209      4037.0593 
 3420   0.0000     148.413620      4038.5399 
 3421   0.0000     148.453866      4039.6351 
 3422   0.0000     148.581362      4043.1044 
 3423   0.0000     148.690189      4046.0657 
 3424   0.0000     148.706194      4046.5012 
 3425   0.0000     148.771294      4048.2727 
 3426   0.0000     148.807121      4049.2476 
 3427   0.0000     148.827167      4049.7931 
 3428   0.0000     148.839357      4050.1248 
 3429   0.0000     148.851792      4050.4632 
 3430   0.0000     148.886524      4051.4083 
 3431   0.0000     148.892416      4051.5686 
 3432   0.0000     148.949329      4053.1173 
 3433   0.0000     148.960732      4053.4276 
 3434   0.0000     148.968403      4053.6363 
 3435   0.0000     148.989320      4054.2055 
 3436   0.0000     149.004378      4054.6153 
 3437   0.0000     149.016096      4054.9341 
 3438   0.0000     149.051499      4055.8975 
 3439   0.0000     149.093440      4057.0388 
 3440   0.0000     149.132094      4058.0906 
 3441   0.0000     149.153444      4058.6716 
 3442   0.0000     197.922228      5385.7376 
 3443   0.0000     197.985501      5387.4594 
 3444   0.0000     198.221734      5393.8876 
 3445   0.0000     198.276058      5395.3658 
 3446   0.0000     198.376449      5398.0976 
 3447   0.0000     198.520913      5402.0287 
 3448   0.0000     254.357956      6921.4319 
 3449   0.0000     254.412058      6922.9041 
 3450   0.0000     254.570186      6927.2069 
 3451   0.0000     254.608373      6928.2461 
 3452   0.0000     254.636048      6928.9991 
 3453   0.0000     254.649807      6929.3735 
 3454   0.0000     254.718631      6931.2463 
 3455   0.0000     254.777994      6932.8617 
 3456   0.0000     384.330638     10458.1683 
Total SCF time: 0 days 0 hours 30 min 46 sec 


           ************************************************************
           *        Program running with 36 parallel MPI-processes    *
           *              working on a common directory               *
           ************************************************************

------------------------------------------------------------------------------
                                ORCA  MP2 
------------------------------------------------------------------------------

Freezing NCore=92 chemical core electrons

   <<< Use J-auxbasis for calculation of Separable RI-J derivative contributions (Dim=2445) >>> 


-------------
RI-MP2 ENERGY
-------------
Dimension of the basis                    ... 3457
Memory devoted to MP2                     ... 6000 MB   
Data format for buffers                   ... DOUBLE
Compression type for matrix containers    ... UNCOMPRESSED
Scaling for aa/bb pairs                   ...   0.000e+00
Scaling for ab pairs                      ...   1.000e+00
Overall scaling of the MP2 energy         ...   2.690e-01
Calculating two index integrals           ... done (    0.924 sec)
Cholesky decomposition of V**-1           ... done (   10.269 sec)

-----------------
RI-TRANSFORMATION (AUX index driven)
-----------------

Dimension of the orbital-basis         ... 3457
Dimension of the aux-basis             ... 7908
Transformation of internal/external MOs...   46- 158 to  159-3456
Number Format for Storage              ... Double (8 Byte)
Integral mode                          ... Direct

First Phase: integral generation and transformation of MO indices
  Aux angular momentum 0               ... done (    8.984 sec)
  Aux angular momentum 1               ... done (   18.715 sec)
  Aux angular momentum 2               ... done (   26.458 sec)
  Aux angular momentum 3               ... done (   23.424 sec)
  Aux angular momentum 4               ... done (   18.931 sec)
  Aux angular momentum 5               ... done (    7.455 sec)
Closing buffer VIA (21.96 GB; CompressionRatio= 1.00)
  Phase 1 completed in   105.666 sec
Second Phase: sorting and transformation of aux index

IA-Transformation
Memory available                       ... 4549 MB 
Max. # MO pairs treated in a batch     ... 4    
# of internal orbitals                 ... 113
# batches for internal orbitals        ... 1
Closing buffer IAV ( 0.78 GB; CompressionRatio= 1.00)
(ia|v) transformation done in    70.682 sec

  Phase 2 completed in   103.585 sec
RI-Integral transformation completed in   209.279 sec
Opening buffers                              ... done

Starting loop over batches of integrals:

Operator 0  - window                       ... ( 46-158)x(159-3456)
Operator 0  - Memory available             ...  6000 MB
Operator 0  - Memory needed per MO         ... 199.0 MB
Operator 0  - Number of orbitals per batch ... 4
Operator 0  - Number of batches            ... 1

OPERATOR  0   PASS   0:  MOs    46 ...   49 +   50 ...   53 +   54 ...   57 +   58 ...   61
                            +   62 ...   65 +   66 ...   69 +   70 ...   73 +   74 ...   77
                            +   78 ...   81 +   82 ...   85 +   86 ...   89 +   90 ...   93
                            +   94 ...   97 +   98 ...  101 +  102 ...  105 +  106 ...  109
                            +  110 ...  113 +  114 ...  117 +  118 ...  121 +  122 ...  125
                            +  126 ...  129 +  130 ...  133 +  134 ...  137 +  138 ...  141
                            +  142 ...  145 +  146 ...  149 +  150 ...  153 +  154 ...  157
                            +  158 ...  158
  Reading integrals       ... ok
  Internal MO  48
Time spent in pair loops =    64.812 sec
Deleting buffer (Ka|jb)[aa] ...done

-----------------------------------------------
 RI-MP2 CORRELATION ENERGY:     -2.022855021 Eh
-----------------------------------------------


-------
TIMINGS
-------

Total time                : 2791.750 sec
Integral trafo            :  209.316 sec (  7.5%)
I/O of integrals          :    1.084 sec (  0.0%)
K(i,j) Operators          :   59.713 sec (  2.1%)
T(i,j) pair energies      :    2.764 sec (  0.1%)
V-calculation             :    0.924 sec (  0.0%)
V**(-1/2)                 :   10.269 sec (  0.4%)
Gamma(ia|P)               :    0.000 sec (  0.0%)
Gamma-Trafo               :    0.000 sec (  0.0%)
D(virtual)                :    0.000 sec (  0.0%)
D(internal)               :    0.000 sec (  0.0%)
W(virtual)                :    0.000 sec (  0.0%)
W(internal)               :    0.000 sec (  0.0%)
L(virtual)                :    0.000 sec (  0.0%)
L(internal)               :    0.000 sec (  0.0%)
G(D)                      :    0.000 sec (  0.0%)
G(Z)                      :    0.000 sec (  0.0%)
Z-Vector Solution         :    0.000 sec (  0.0%)
3-Index Derivative        :    0.000 sec (  0.0%)
2-Index Derivative        :    0.000 sec (  0.0%)
Separable Gradient (RIJ)  :    0.000 sec (  0.0%)
Separable Gradient (COSX) :    0.000 sec (  0.0%)


---------------------------------------
MP2 TOTAL ENERGY:    -2321.314239944 Eh
---------------------------------------


-------------------------------------------------------------------------------
                          DFT DISPERSION CORRECTION                            
                                                                               
                              DFTD3 V3.1  Rev 1                                
                          USING Becke-Johnson damping                          
-------------------------------------------------------------------------------
-------------------------   ----------------
Dispersion correction           -0.055658523
-------------------------   ----------------


-------------------------   --------------------
FINAL SINGLE POINT ENERGY     -2321.369898466825
-------------------------   --------------------


                            ***************************************
                            *     ORCA property calculations      *
                            ***************************************


  WARNING: The energy has been calculated at the MP2 level but the densities
           used in the property calculations are still SCF densities
           MP2 response densities have not been calculated 
           use %mp2 Density relaxed end
           or  %mp2 Density unrelaxed end

                                    ---------------------
                                    Active property flags
                                    ---------------------
   (+) Dipole Moment


------------------------------------------------------------------------------
                       ORCA ELECTRIC PROPERTIES CALCULATION
------------------------------------------------------------------------------

Dipole Moment Calculation                       ... on
Quadrupole Moment Calculation                   ... off
Polarizability Calculation                      ... off
GBWName                                         ... orcaSP.gbw
Electron density file                           ... orcaSP.scfp
The origin for moment calculation is the CENTER OF MASS  = (-0.046025,  0.070308 -0.079699)

-------------
DIPOLE MOMENT
-------------
                                X             Y             Z
Electronic contribution:    -14.48879      17.03949     -25.41794
Nuclear contribution   :     14.63579     -22.35792      25.34412
                        -----------------------------------------
Total Dipole Moment    :      0.14700      -5.31843      -0.07382
                        -----------------------------------------
Magnitude (a.u.)       :      5.32098
Magnitude (Debye)      :     13.52485



--------------------
Rotational spectrum 
--------------------
 
Rotational constants in cm-1:     0.003552     0.002908     0.002514 
Rotational constants in MHz :   106.474247    87.189376    75.365884 

 Dipole components along the rotational axes: 
x,y,z [a.u.] :     0.284403    -5.313248    -0.036257 
x,y,z [Debye]:     0.722894   -13.505203    -0.092158 

 

Timings for individual modules:

Sum of individual times         ...     4670.942 sec (=  77.849 min)
GTO integral calculation        ...       30.507 sec (=   0.508 min)   0.7 %
SCF iterations                  ...     1846.850 sec (=  30.781 min)  39.5 %
MP2 module                      ...     2793.585 sec (=  46.560 min)  59.8 %
                             ****ORCA TERMINATED NORMALLY****
TOTAL RUN TIME: 0 days 1 hours 17 minutes 53 seconds 670 msec
