
                                 *****************
                                 * O   R   C   A *
                                 *****************

                                            #,                                       
                                            ###                                      
                                            ####                                     
                                            #####                                    
                                            ######                                   
                                           ########,                                 
                                     ,,################,,,,,                         
                               ,,#################################,,                 
                          ,,##########################################,,             
                       ,#########################################, ''#####,          
                    ,#############################################,,   '####,        
                  ,##################################################,,,,####,       
                ,###########''''           ''''###############################       
              ,#####''   ,,,,##########,,,,          '''####'''          '####       
            ,##' ,,,,###########################,,,                        '##       
           ' ,,###''''                  '''############,,,                           
         ,,##''                                '''############,,,,        ,,,,,,###''
      ,#''                                            '''#######################'''  
     '                                                          ''''####''''         
             ,#######,   #######,   ,#######,      ##                                
            ,#'     '#,  ##    ##  ,#'     '#,    #''#        ,####,   ,####,        
            ##       ##  ##   ,#'  ##            #'  '#       #'       #'  '#        
            ##       ##  #######   ##           ,######,      #####,   #    #        
            '#,     ,#'  ##    ##  '#,     ,#' ,#      #,     #,   #   #,  ,#        
             '#######'   ##     ##  '#######'  #'      '#     '####' # '####'        



                #########################################################
                #                        -***-                          #
                #          Department of theory and spectroscopy        #
                #                                                       #
                #                      Frank Neese                      #
                #                                                       #
                #     Directorship, Architecture, Infrastructure        #
                #                    SHARK, DRIVERS                     #
                #        Core code/Algorithms in most modules           #
                #                                                       #
                #        Max Planck Institute fuer Kohlenforschung      #
                #                Kaiser Wilhelm Platz 1                 #
                #                 D-45470 Muelheim/Ruhr                 #
                #                      Germany                          #
                #                                                       #
                #                  All rights reserved                  #
                #                        -***-                          #
                #########################################################


                         Program Version 6.0.1  -  RELEASE   -


 With contributions from (in alphabetic order):
[Max-Planck-Institut fuer Kohlenforschung]                               
  Daniel Aravena         : Magnetic Suceptibility                        
  Michael Atanasov       : Ab Initio Ligand Field Theory (pilot matlab implementation)
  Alexander A. Auer      : GIAO ZORA, VPT2 properties, NMR spectrum      
  Ute Becker             : All parallelization in ORCA, NUMFREQ, NUMCALC 
  Giovanni Bistoni       : ED, misc. LED, open-shell LED, HFLD           
  Martin Brehm           : Molecular dynamics                            
  Dmytro Bykov           : pre 5.0 version of the SCF Hessian            
  Marcos Casanova-Páez   : Triplet and SCS-CIS(D). UHF-(DLPNO)-IP/EA/STEOM-CCSD. UHF-CVS-IP/STEOM-CCSD   
  Vijay G. Chilkuri      : MRCI spin determinant printing, contributions to CSF-ICE 
  Pauline Colinet        : FMM embedding                                 
  Dipayan Datta          : RHF DLPNO-CCSD density                        
  Achintya Kumar Dutta   : EOM-CC, STEOM-CC                              
  Nicolas Foglia         : Exact transition moments, OPA infrastructure, MCD improvements    
  Dmitry Ganyushin       : Spin-Orbit,Spin-Spin,Magnetic field MRCI      
  Miquel Garcia-Rates    : C-PCM and meta-GGA Hessian, CCSD/C-PCM, Gaussian charge scheme 
  Tiago L. C. Gouveia    : GS-ROHF, GS-ROCIS                             
  Yang Guo               : DLPNO-NEVPT2, F12-NEVPT2, CIM, IAO-localization        
  Andreas Hansen         : Spin unrestricted coupled pair/coupled cluster methods 
  Ingolf Harden          : AUTO-CI MPn and infrastructure                
  Benjamin Helmich-Paris : MC-RPA, TRAH-(SCF,CASSCF), AVAS, COSX integrals, SCF dyn. polar. 
  Lee Huntington         : MR-EOM, pCC                                   
  Robert Izsak           : Overlap fitted RIJCOSX, COSX-SCS-MP3, EOM     
  Riya Kayal             : Wick's Theorem for AUTO-CI, AUTO-CI UHF-CCSDT 
  Emily Kempfer          : AUTO-CI, RHF CISDT and CCSDT                  
  Christian Kollmar      : KDIIS, OOCD, Brueckner-CCSD(T), CCSD density, CASPT2, CASPT2-K, improved NEVPT2 
  Axel Koslowski         : Symmetry handling                             
  Simone Kossmann        : meta-GGA functionals, TD-DFT gradient, OOMP2, (MP2 Hessian; deprecated post 5.0) 
  Lucas Lang             : DCDCAS                                        
  Marvin Lechner         : AUTO-CI (C++ implementation), FIC-MRCC        
  Spencer Leger          : CASSCF response                               
  Dagmar Lenk            : GEPOL surface, SMD, ORCA-2-JSON               
  Dimitrios Liakos       : Extrapolation schemes; Compound Job, initial MDCI parallelization 
  Dimitrios Manganas     : Further ROCIS development; embedding schemes. LFT, Crystal Embedding 
  Dimitrios Pantazis     : SARC Basis sets                               
  Anastasios Papadopoulos: AUTO-CI, single reference methods and gradients 
  Taras Petrenko         : pre 6.0 DFT Hessian and TD-DFT gradient, (ASA, deprecated), ECA, 1-Electron XAS/XES, NRVS 
  Peter Pinski           : DLPNO-MP2, DLPNO-MP2 Gradient                 
  Christoph Reimann      : Effective Core Potentials                     
  Marius Retegan         : Local ZFS, SOC                                
  Christoph Riplinger    : Optimizer, TS searches, QM/MM, DLPNO-CCSD(T), (RO)-DLPNO pert. Triples 
  Michael Roemelt        : Original ROCIS implementation                 
  Masaaki Saitow         : Open-shell DLPNO-CCSD energy and density      
  Barbara Sandhoefer     : DKH picture change effects                    
  Kantharuban Sivalingam : CASSCF convergence/infrastructure, NEVPT2 and variants, FIC-MRCI 
  Bernardo de Souza      : ESD, SOC TD-DFT                               
  Georgi L. Stoychev     : AutoAux, RI-MP2 NMR, DLPNO-MP2 response, X2C  
  Van Anh Tran           : RI-MP2 g-tensors                              
  Willem Van den Heuvel  : Paramagnetic NMR                              
  Zikuan Wang            : NOTCH, Electric field optimization            
  Frank Wennmohs         : Technical directorship and infrastructure     
  Hang Xu                : AUTO-CI-Response properties                   
                                                                         
[FACCTs GmbH]                                                            
  Markus Bursch, Miquel Garcia-Rates, Christoph Riplinger, Bernardo de Souza, Georgi L. Stoychev 
                                                                 
  APM, Basis sets (HGBS, AHGBS, def-TZVP (Ac-Lr), def2-XVPD (La-Lu)), CI-OPT, improved COSX, DLPNO-Multilevel,           
  DOCKER, DRACO, updates on ESD, GOAT, IRC, LR-CPCM, MBIS, meta-GGA TD-DFT gradient, ML-optimized integration grids, 
  MM, NACMEs, nearIR, NEB, NEB-TS, NL-DFT gradient (VV10), 2- and 3-layer-ONIOM, interface openCOSMO-RS, QMMM,   
  Crystal-QMMM, SF, symmetry and pop. for TD-DFT, r2SCAN hybrids, SOLVATOR                                   
                                                                         
[Other institutions]                                                     
  V. Asgeirsson          : NEB                                           
  Christoph Bannwarth    : sTDA-DFT, sTD-DFT, PBEh-3c, B97-3c, D3        
  Sebastian Ehlert       : rSCAN, r2SCAN, r2SCAN-3c, D4, dhf basis sets  
  Marvin Friede          : D4 for Fr, Ra, Ac-Lr                          
  Lars Goerigk           : TD-DFT with DH, B97 family of functionals     
  Stefan Grimme          : VdW corrections, initial TS optimization, DFT functionals, gCP, sTDA/sTD-DF 
  Waldemar Hujo          : DFT-NL                                        
  H. Jonsson             : NEB                                           
  Holger Kruse           : gCP                                           
  Marcel Mueller         : wB97X-3c, vDZP basis set                      
  Hagen Neugebauer       : wr2SCAN                                       
  Tobias Risthaus        : range-separated hybrid DFT                    
  Lukas Wittmann         : regularized MP2, r2SCAN double-hybrids, wr2SCAN        
                                                                         
We gratefully acknowledge several colleagues who have allowed us to      
interface, adapt or use parts of their codes:                            
  Ed Valeev, F. Pavosevic, A. Kumar             : LibInt (2-el integral package), F12 methods 
  Garnet Chan, S. Sharma, J. Yang, R. Olivares  : DMRG                   
  Ulf Ekstrom                                   : XCFun DFT Library      
  Mihaly Kallay                                 : mrcc  (arbitrary order and MRCC methods)
  Frank Weinhold                                : gennbo (NPA and NBO analysis)           
  Simon Mueller                                 : openCOSMO-RS                            
  Christopher J. Cramer and Donald G. Truhlar   : smd solvation model                     
  S Lehtola, MJT Oliveira, MAL Marques          : LibXC Library                           
  Liviu Ungur et al                             : ANISO software                          


 Your calculation uses the libint2 library for the computation of 2-el integrals
 For citations please refer to: http://libint.valeyev.net

 Your ORCA version has been built with support for libXC version: 6.2.2
 For citations please refer to: https://libxc.gitlab.io

 This ORCA versions uses:
   CBLAS   interface :  Fast vector & matrix operations
   LAPACKE interface :  Fast linear algebra routines
   SCALAPACK package :  Parallel linear algebra routines
   Shared memory     :  Shared parallel matrices
   BLAS/LAPACK       :  OpenBLAS 0.3.27  USE64BITINT DYNAMIC_ARCH NO_AFFINITY Haswell SINGLE_THREADED
        Core in use  :  Haswell
   Copyright (c) 2011-2014, The OpenBLAS Project


NOTE: MaxCore=4000 MB was set to SCF,MP2,MDCI,CIPSI,MRCI and CIS
      => If you want to overwrite this, your respective input block should be placed after the MaxCore statement


***************************************
The coordinates will be read from file: B_N_S0-1.xyz
***************************************


Your calculation utilizes the atom-pairwise dispersion correction
with the zero-damping scheme (D30)


XCFun DFT library Copyright 2009-2010 Ulf Ekstrom and contributors.
See http://admol.org/xcfun for more information.
This is free software; see the source code for copying conditions.
There is ABSOLUTELY NO WARRANTY; not even for MERCHANTABILITY or FITNESS FOR A PARTICULAR PURPOSE.
For details see the documentation.
Scientific users of this library should cite U. Ekstrom, L. Visscher, R. Bast, A. J. Thorvaldsen and K. Ruud;
J.Chem.Theor.Comp. 2010, DOI: 10.1021/ct100117s
XCFun Version 0.99 

Warning: RI is on but no J-basis has been assigned. Assigning Def2/J (nothing to worry about!)
================================================================================

----- Orbital basis set information -----
Your calculation utilizes the basis: def2-TZVP
   F. Weigend and R. Ahlrichs, Phys. Chem. Chem. Phys. 7, 3297 (2005).

----- AuxJ basis set information -----
Your calculation utilizes the auxiliary basis: def2/J
   F. Weigend, Phys. Chem. Chem. Phys. 8, 1057 (2006).

================================================================================
                                        WARNINGS
                       Please study these warnings very carefully!
================================================================================


WARNING: Geometry Optimization
  ===> : Switching off AutoStart
         For restart on a previous wavefunction, please use MOREAD

================================================================================
                                       INPUT FILE
================================================================================
NAME = B_N_S0-1.inp
|  1> !wB97X-D3 DEF2-TZVP OPT FREQ TIGHTSCF CPCM(dichloromethane) 
|  2> % pal nprocs 5 end 
|  3> % maxcore 4000  
|  4> %scf
|  5> MaxIter 300  
|  6> end 
|  7> * xyzfile 0 1 B_N_S0-1.xyz
|  8> 
|  9> 
| 10> 
| 11>                          ****END OF INPUT****
================================================================================

                       *****************************
                       * Geometry Optimization Run *
                       *****************************

Geometry optimization settings:
Update method            Update   .... BFGS
Choice of coordinates    CoordSys .... (2022) Redundant Internals
Initial Hessian          InHess   .... Almloef's Model
Max. no of cycles        MaxIter  .... 54

Convergence Tolerances:
Energy Change            TolE     ....  5.0000e-06 Eh
Max. Gradient            TolMAXG  ....  3.0000e-04 Eh/bohr
RMS Gradient             TolRMSG  ....  1.0000e-04 Eh/bohr
Max. Displacement        TolMAXD  ....  4.0000e-03 bohr
RMS Displacement         TolRMSD  ....  2.0000e-03 bohr
Strict Convergence                .... False

------------------------------------------------------------------------------
                        ORCA OPTIMIZATION COORDINATE SETUP
------------------------------------------------------------------------------

The optimization will be done in redundant internal coordinates (2022)
Making redundant internal coordinates   ...  (2022 redundants) done
Evaluating the initial hessian          ...  (Almloef) done
Evaluating the coordinates              ...  done
Calculating the B-matrix                .... done
Calculating the G-matrix                .... done
Diagonalizing the G-matrix              .... done
Small eigenvalue found = 2.340e-02
The first mode is                       ....   33
The number of degrees of freedom        ....   48

    -----------------------------------------------------------------
                    Redundant Internal Coordinates


    -----------------------------------------------------------------
         Definition                    Initial Value    Approx d2E/dq
    -----------------------------------------------------------------
      1. B(C   1,C   0)                  1.4106         0.579353   
      2. B(C   2,C   0)                  1.4341         0.531352   
      3. B(C   3,C   1)                  1.3918         0.620776   
      4. B(C   4,C   3)                  1.3881         0.629288   
      5. B(C   5,C   4)                  1.3933         0.617305   
      6. B(C   5,C   2)                  1.4118         0.576814   
      7. B(H   6,C   4)                  1.0825         0.370202   
      8. B(H   7,C   5)                  1.0839         0.368292   
      9. B(H   8,C   1)                  1.0834         0.368954   
     10. B(H   9,C   3)                  1.0825         0.370132   
     11. B(C  10,C   0)                  1.5046         0.410037   
     12. B(C  11,C   2)                  1.5051         0.409348   
     13. B(N  12,C  11)                  1.2856         0.821268   
     14. B(H  13,C  11)                  1.0864         0.364906   
     15. B(H  14,N  12)                  1.0202         0.416818   
     16. B(H  15,C  10)                  1.1104         0.334046   
     17. B(H  16,C  10)                  1.1088         0.336126   
     18. B(H  17,C  10)                  1.1111         0.333240   
     19. A(C   1,C   0,C  10)          116.5225         0.398452   
     20. A(C   1,C   0,C   2)          119.0903         0.417148   
     21. A(C   2,C   0,C  10)          124.3844         0.392454   
     22. A(C   0,C   1,H   8)          120.7719         0.350322   
     23. A(C   3,C   1,H   8)          117.9903         0.354439   
     24. A(C   0,C   1,C   3)          121.2377         0.428907   
     25. A(C   0,C   2,C   5)          117.9434         0.416822   
     26. A(C   5,C   2,C  11)          114.3715         0.398027   
     27. A(C   0,C   2,C  11)          127.6834         0.392338   
     28. A(C   1,C   3,H   9)          120.0526         0.354631   
     29. A(C   4,C   3,H   9)          119.9737         0.355451   
     30. A(C   1,C   3,C   4)          119.9736         0.435327   
     31. A(C   3,C   4,H   6)          119.9241         0.355462   
     32. A(C   3,C   4,C   5)          120.0698         0.434888   
     33. A(C   5,C   4,H   6)          120.0061         0.354305   
     34. A(C   2,C   5,C   4)          121.6829         0.428138   
     35. A(C   4,C   5,H   7)          117.6423         0.353995   
     36. A(C   2,C   5,H   7)          120.6742         0.349957   
     37. A(H  16,C  10,H  17)          106.1646         0.284260   
     38. A(C   0,C  10,H  17)          112.1700         0.325152   
     39. A(H  15,C  10,H  16)          111.7925         0.284367   
     40. A(C   0,C  10,H  16)          110.1094         0.325613   
     41. A(C   0,C  10,H  15)          109.8276         0.325281   
     42. A(H  15,C  10,H  17)          106.7082         0.283986   
     43. A(N  12,C  11,H  13)          115.7956         0.368771   
     44. A(C   2,C  11,H  13)          117.1186         0.329962   
     45. A(C   2,C  11,N  12)          127.0786         0.421001   
     46. A(C  11,N  12,H  14)          126.3484         0.373962   
     47. D(H   8,C   1,C   0,C   2)   -179.9829         0.023058   
     48. D(H   8,C   1,C   0,C  10)     -0.5556         0.023058   
     49. D(C   3,C   1,C   0,C  10)    179.5479         0.023058   
     50. D(C   3,C   1,C   0,C   2)      0.1206         0.023058   
     51. D(C  11,C   2,C   0,C   1)    179.8083         0.019274   
     52. D(C   5,C   2,C   0,C   1)      0.3045         0.019274   
     53. D(C   5,C   2,C   0,C  10)   -179.0746         0.019274   
     54. D(C  11,C   2,C   0,C  10)      0.4292         0.019274   
     55. D(H   9,C   3,C   1,H   8)     -0.1143         0.026670   
     56. D(H   9,C   3,C   1,C   0)    179.7850         0.026670   
     57. D(C   4,C   3,C   1,H   8)    179.7518         0.026670   
     58. D(C   4,C   3,C   1,C   0)     -0.3488         0.026670   
     59. D(H   6,C   4,C   3,C   1)   -179.8592         0.027453   
     60. D(C   5,C   4,C   3,H   9)   -179.9954         0.027453   
     61. D(C   5,C   4,C   3,C   1)      0.1384         0.027453   
     62. D(H   6,C   4,C   3,H   9)      0.0071         0.027453   
     63. D(H   7,C   5,C   4,H   6)      0.0211         0.026355   
     64. D(C   2,C   5,C   4,H   6)   -179.6984         0.026355   
     65. D(C   2,C   5,C   4,C   3)      0.3041         0.026355   
     66. D(H   7,C   5,C   2,C  11)      0.2000         0.022847   
     67. D(H   7,C   5,C   2,C   0)    179.7689         0.022847   
     68. D(H   7,C   5,C   4,C   3)   -179.9764         0.026355   
     69. D(C   4,C   5,C   2,C  11)    179.9111         0.022847   
     70. D(C   4,C   5,C   2,C   0)     -0.5200         0.022847   
     71. D(H  17,C  10,C   0,C   1)     -1.9809         0.012452   
     72. D(H  16,C  10,C   0,C   2)    -64.5963         0.012452   
     73. D(H  16,C  10,C   0,C   1)    116.0101         0.012452   
     74. D(H  15,C  10,C   0,C   2)     58.9272         0.012452   
     75. D(H  15,C  10,C   0,C   1)   -120.4664         0.012452   
     76. D(N  12,C  11,C   2,C   5)   -174.3508         0.011494   
     77. D(N  12,C  11,C   2,C   0)      6.1304         0.011494   
     78. D(H  13,C  11,C   2,C   5)      4.6260         0.011494   
     79. D(H  13,C  11,C   2,C   0)   -174.8927         0.011494   
     80. D(H  14,N  12,C  11,H  13)   -178.6938         0.052315   
     81. D(H  14,N  12,C  11,C   2)      0.2947         0.052315   
    -----------------------------------------------------------------

Number of atoms                         .... 18
Number of degrees of freedom            .... 81


         *************************************************************
         *                GEOMETRY OPTIMIZATION CYCLE   1            *
         *************************************************************
---------------------------------
CARTESIAN COORDINATES (ANGSTROEM)
---------------------------------
  C      0.035930    1.055070    0.031740
  C      1.436110    1.217810    0.083500
  C     -0.510290   -0.269560   -0.028570
  C      2.291170    0.119730    0.074510
  C      1.769110   -1.165290    0.021030
  C      0.389910   -1.357070   -0.026580
  H      2.434820   -2.018840    0.016380
  H      0.025120   -2.376910   -0.067120
  H      1.877940    2.205920    0.129910
  H      3.363000    0.266940    0.111380
  C     -0.788200    2.313680    0.057830
  C     -1.961500   -0.664660   -0.085430
  N     -2.974230    0.118930   -0.199700
  H     -2.187800   -1.726300   -0.041220
  H     -2.946440    1.136030   -0.273940
  H     -1.466190    2.301790    0.937190
  H     -1.348710    2.422090   -0.892650
  H     -0.159250    3.224810    0.151690

----------------------------
CARTESIAN COORDINATES (A.U.)
----------------------------
  NO LB      ZA    FRAG     MASS         X           Y           Z
   0 C     6.0000    0    12.011    0.067898    1.993793    0.059980
   1 C     6.0000    0    12.011    2.713855    2.301327    0.157792
   2 C     6.0000    0    12.011   -0.964308   -0.509395   -0.053989
   3 C     6.0000    0    12.011    4.329684    0.226257    0.140803
   4 C     6.0000    0    12.011    3.343133   -2.202079    0.039741
   5 C     6.0000    0    12.011    0.736823   -2.564491   -0.050229
   6 H     1.0000    0     1.008    4.601143   -3.815055    0.030954
   7 H     1.0000    0     1.008    0.047470   -4.491709   -0.126838
   8 H     1.0000    0     1.008    3.548792    4.168585    0.245494
   9 H     1.0000    0     1.008    6.355149    0.504443    0.210478
  10 C     6.0000    0    12.011   -1.489482    4.372222    0.109283
  11 C     6.0000    0    12.011   -3.706698   -1.256025   -0.161439
  12 N     7.0000    0    14.007   -5.620480    0.224745   -0.377378
  13 H     1.0000    0     1.008   -4.134343   -3.262234   -0.077895
  14 H     1.0000    0     1.008   -5.567965    2.146786   -0.517672
  15 H     1.0000    0     1.008   -2.770698    4.349753    1.771032
  16 H     1.0000    0     1.008   -2.548693    4.577087   -1.686864
  17 H     1.0000    0     1.008   -0.300939    6.094008    0.286653

--------------------------------
INTERNAL COORDINATES (ANGSTROEM)
--------------------------------
 C      0   0   0     0.000000000000     0.00000000     0.00000000
 C      1   0   0     1.410555719424     0.00000000     0.00000000
 C      1   2   0     1.434098400180   119.09034797     0.00000000
 C      2   1   3     1.391757202281   121.23773701     0.12055372
 C      4   2   1     1.388050126761   119.97358337   359.65115977
 C      5   4   2     1.393283503276   120.06977093     0.13841436
 H      5   4   2     1.082468950640   119.92413306   180.14083895
 H      6   5   4     1.083876774038   117.64230614   180.02356077
 H      2   1   3     1.083387746423   120.77188058   180.01709178
 H      4   2   1     1.082520082908   120.05255931   179.78503658
 C      1   2   3     1.504649486459   116.52253837   179.42730513
 C      3   1   2     1.505107150239   127.68344958   179.80831085
 N     12   3   1     1.285571069175   127.07863138     6.13044680
 H     12   3   1     1.086391137528   117.11856273   185.10725692
 H     13  12   3     1.020184430238   126.34837515     0.29468506
 H     11   1   2     1.110443975084   109.82757062   239.53357771
 H     11   1   2     1.108754444681   110.10943789   116.01012791
 H     11   1   2     1.111101111061   112.16997077   358.01910917

---------------------------
INTERNAL COORDINATES (A.U.)
---------------------------
 C      0   0   0     0.000000000000     0.00000000     0.00000000
 C      1   0   0     2.665564006348     0.00000000     0.00000000
 C      1   2   0     2.710053225436   119.09034797     0.00000000
 C      2   1   3     2.630039957223   121.23773701     0.12055372
 C      4   2   1     2.623034599732   119.97358337   359.65115977
 C      5   4   2     2.632924248101   120.06977093     0.13841436
 H      5   4   2     2.045569865183   119.92413306   180.14083895
 H      6   5   4     2.048230265851   117.64230614   180.02356077
 H      2   1   3     2.047306137586   120.77188058   180.01709178
 H      4   2   1     2.045666491167   120.05255931   179.78503658
 C      1   2   3     2.843375456952   116.52253837   179.42730513
 C      3   1   2     2.844240316158   127.68344958   179.80831085
 N     12   3   1     2.429377246433   127.07863138     6.13044680
 H     12   3   1     2.052981724248   117.11856273   185.10725692
 H     13  12   3     1.927869179240   126.34837515     0.29468506
 H     11   1   2     2.098434999971   109.82757062   239.53357771
 H     11   1   2     2.095242250215   110.10943789   116.01012791
 H     11   1   2     2.099676807000   112.16997077   358.01910917

---------------------
BASIS SET INFORMATION
---------------------
There are 3 groups of distinct atoms

 Group   1 Type C   : 11s6p2d1f contracted to 5s3p2d1f pattern {62111/411/11/1}
 Group   2 Type H   : 5s1p contracted to 3s1p pattern {311/1}
 Group   3 Type N   : 11s6p2d1f contracted to 5s3p2d1f pattern {62111/411/11/1}

Atom   0C    basis set group =>   1
Atom   1C    basis set group =>   1
Atom   2C    basis set group =>   1
Atom   3C    basis set group =>   1
Atom   4C    basis set group =>   1
Atom   5C    basis set group =>   1
Atom   6H    basis set group =>   2
Atom   7H    basis set group =>   2
Atom   8H    basis set group =>   2
Atom   9H    basis set group =>   2
Atom  10C    basis set group =>   1
Atom  11C    basis set group =>   1
Atom  12N    basis set group =>   3
Atom  13H    basis set group =>   2
Atom  14H    basis set group =>   2
Atom  15H    basis set group =>   2
Atom  16H    basis set group =>   2
Atom  17H    basis set group =>   2
---------------------------------
AUXILIARY/J BASIS SET INFORMATION
---------------------------------
There are 3 groups of distinct atoms

 Group   1 Type C   : 12s5p4d2f1g contracted to 6s4p3d1f1g pattern {711111/2111/211/2/1}
 Group   2 Type H   : 5s2p1d contracted to 3s1p1d pattern {311/2/1}
 Group   3 Type N   : 12s5p4d2f1g contracted to 6s4p3d1f1g pattern {711111/2111/211/2/1}

Atom   0C    basis set group =>   1
Atom   1C    basis set group =>   1
Atom   2C    basis set group =>   1
Atom   3C    basis set group =>   1
Atom   4C    basis set group =>   1
Atom   5C    basis set group =>   1
Atom   6H    basis set group =>   2
Atom   7H    basis set group =>   2
Atom   8H    basis set group =>   2
Atom   9H    basis set group =>   2
Atom  10C    basis set group =>   1
Atom  11C    basis set group =>   1
Atom  12N    basis set group =>   3
Atom  13H    basis set group =>   2
Atom  14H    basis set group =>   2
Atom  15H    basis set group =>   2
Atom  16H    basis set group =>   2
Atom  17H    basis set group =>   2


           ************************************************************
           *        Program running with 5 parallel MPI-processes     *
           *              working on a common directory               *
           ************************************************************
------------------------------------------------------------------------------
                             ORCA STARTUP CALCULATIONS
                           -- RI-GTO INTEGRALS CHOSEN --
------------------------------------------------------------------------------
------------------------------------------------------------------------------
                   ___                                                        
                  /   \      - P O W E R E D   B Y -                         
                 /     \                                                     
                 |  |  |   _    _      __       _____    __    __             
                 |  |  |  | |  | |    /  \     |  _  \  |  |  /  |          
                  \  \/   | |  | |   /    \    | | | |  |  | /  /          
                 / \  \   | |__| |  /  /\  \   | |_| |  |  |/  /          
                |  |  |   |  __  | /  /__\  \  |    /   |      \           
                |  |  |   | |  | | |   __   |  |    \   |  |\   \          
                \     /   | |  | | |  |  |  |  | |\  \  |  | \   \       
                 \___/    |_|  |_| |__|  |__|  |_| \__\ |__|  \__/        
                                                                              
                      - O R C A' S   B I G   F R I E N D -                    
                                      &                                       
                       - I N T E G R A L  F E E D E R -                       
                                                                              
 v1 FN, 2020, v2 2021, v3 2022-2024                                           
------------------------------------------------------------------------------


----------------------
SHARK INTEGRAL PACKAGE
----------------------

Number of atoms                             ...     18
Number of basis functions                   ...    333
Number of shells                            ...    135
Maximum angular momentum                    ...      3
Integral batch strategy                     ... SHARK/LIBINT Hybrid
RI-J (if used) integral strategy            ... SPLIT-RIJ (Revised 2003 algorithm where possible)
Printlevel                                  ...      1
Contraction scheme used                     ... SEGMENTED contraction
Prescreening option                         ... SCHWARTZ
   Thresh                                   ... 2.500e-11
   Tcut                                     ... 2.500e-12
   Tpresel                                  ... 2.500e-12 
Coulomb Range Separation                    ... NOT USED
Exchange Range Separation                   ... Long Range
   Mu parameter                             ... 2.500e-01
   Scaling (regular/separated)              ... 1.957e-01 8.043e-01
Multipole approximations                    ... NOT USED
Finite Nucleus Model                        ... NOT USED
CABS basis                                  ... NOT available
Auxiliary Coulomb fitting basis             ... AVAILABLE
   # of basis functions in Aux-J            ...    540
   # of shells in Aux-J                     ...    180
   Maximum angular momentum in Aux-J        ...      4
Auxiliary J/K fitting basis                 ... NOT available
Auxiliary Correlation fitting basis         ... NOT available
Auxiliary 'external' fitting basis          ... NOT available

Checking pre-screening integrals            ... done (  0.0 sec) Dimension = 135
Check shell pair data                       ... done (  0.0 sec)
Shell pair information
Shell pair cut-off parameter TPreSel        ...   2.5e-12
Total number of shell pairs                 ...      9180
Shell pairs after pre-screening             ...      8342
Total number of primitive shell pairs       ...     27720
Primitive shell pairs kept                  ...     18786
          la=0 lb=0:   2282 shell pairs
          la=1 lb=0:   2358 shell pairs
          la=1 lb=1:    627 shell pairs
          la=2 lb=0:   1195 shell pairs
          la=2 lb=1:    620 shell pairs
          la=2 lb=2:    166 shell pairs
          la=3 lb=0:    584 shell pairs
          la=3 lb=1:    311 shell pairs
          la=3 lb=2:    156 shell pairs
          la=3 lb=3:     43 shell pairs

Calculating one electron integrals          ... done (  0.0 sec)
Calculating RI/J V-Matrix + Cholesky decomp.... done (  0.0 sec)
Calculating Nuclear repulsion               ... done (  0.0 sec) ENN=    401.868601379388 Eh

Diagonalization of the overlap matrix:
Smallest eigenvalue                        ... 7.431e-06
Time for diagonalization                   ...    0.015 sec
Threshold for overlap eigenvalues          ... 1.000e-07
Number of eigenvalues below threshold      ... 0
Time for construction of square roots      ...    0.009 sec
Total time needed                          ...    0.027 sec

-------------------
DFT GRID GENERATION
-------------------

General Integration Accuracy     IntAcc      ... 4.388
Radial Grid Type                 RadialGrid  ... OptM3 with GC (2021)
Angular Grid (max. ang.)         AngularGrid ... 4 (Lebedev-302)
Angular grid pruning method      GridPruning ... 4 (adaptive)
Weight generation scheme         WeightScheme... mBecke (2022)
Basis function cutoff            BFCut       ... 1.0000e-11
Integration weight cutoff        WCut        ... 1.0000e-14
Partially contracted basis set               ... off
Rotationally invariant grid construction     ... off
Angular grids for H and He will be reduced by one unit

Total number of grid points                  ...    82979
Total number of batches                      ...     1306
Average number of points per batch           ...       63
Average number of grid points per atom       ...     4610

--------------------
COSX GRID GENERATION
--------------------

GRIDX 1
-------
General Integration Accuracy     IntAcc      ... 3.816
Radial Grid Type                 RadialGrid  ... OptM3 with GC (2021)
Angular Grid (max. ang.)         AngularGrid ... 1 (Lebedev-50)
Angular grid pruning method      GridPruning ... 4 (adaptive)
Weight generation scheme         WeightScheme... mBecke (2022)
Basis function cutoff            BFCut       ... 1.0000e-11
Integration weight cutoff        WCut        ... 1.0000e-14
Partially contracted basis set               ... on
Rotationally invariant grid construction     ... off
Angular grids for H and He will be reduced by one unit

Total number of grid points                  ...    10622
Total number of batches                      ...       92
Average number of points per batch           ...      115
Average number of grid points per atom       ...      590
UseSFitting                                  ... on

GRIDX 2
-------
General Integration Accuracy     IntAcc      ... 4.020
Radial Grid Type                 RadialGrid  ... OptM3 with GC (2021)
Angular Grid (max. ang.)         AngularGrid ... 2 (Lebedev-110)
Angular grid pruning method      GridPruning ... 4 (adaptive)
Weight generation scheme         WeightScheme... mBecke (2022)
Basis function cutoff            BFCut       ... 1.0000e-11
Integration weight cutoff        WCut        ... 1.0000e-14
Partially contracted basis set               ... on
Rotationally invariant grid construction     ... off
Angular grids for H and He will be reduced by one unit

Total number of grid points                  ...    22944
Total number of batches                      ...      189
Average number of points per batch           ...      121
Average number of grid points per atom       ...     1275
UseSFitting                                  ... on

GRIDX 3
-------
General Integration Accuracy     IntAcc      ... 4.338
Radial Grid Type                 RadialGrid  ... OptM3 with GC (2021)
Angular Grid (max. ang.)         AngularGrid ... 3 (Lebedev-194)
Angular grid pruning method      GridPruning ... 4 (adaptive)
Weight generation scheme         WeightScheme... mBecke (2022)
Basis function cutoff            BFCut       ... 1.0000e-11
Integration weight cutoff        WCut        ... 1.0000e-14
Partially contracted basis set               ... on
Rotationally invariant grid construction     ... off
Angular grids for H and He will be reduced by one unit

Total number of grid points                  ...    50312
Total number of batches                      ...      405
Average number of points per batch           ...      124
Average number of grid points per atom       ...     2795
UseSFitting                                  ... on
Initializing property integral containers    ... done (  0.0 sec)

SHARK setup successfully completed in   1.6 seconds

Maximum memory used throughout the entire STARTUP-calculation: 31.5 MB


           ************************************************************
           *        Program running with 5 parallel MPI-processes     *
           *              working on a common directory               *
           ************************************************************
-------------------------------------------------------------------------------
                                 ORCA GUESS
                   Start orbitals & Density for SCF / CASSCF
-------------------------------------------------------------------------------

------------
SCF SETTINGS
------------
Hamiltonian:
 Density Functional     Method          .... DFT(GTOs)
 Exchange Functional    Exchange        .... WB97X-D3
 Correlation Functional Correlation     .... WB97X-D3
 Gradients option       PostSCFGGA      .... off
 Hybrid DFT is turned on
   Fraction HF Exchange ScalHFX         ....  0.195728
   Scaling of DF-GGA-X  ScalDFX         ....  0.000000
   Scaling of DF-GGA-C  ScalDFC         ....  1.000000
   Scaling of DF-LDA-C  ScalLDAC        ....  1.000000
   Perturbative correction              ....  0.000000
 Long-range corrected/Screened/Range-Separated Hybrid DFT is turned on
   Amount of maximum screened exact exchange              ....  0.804272
   Range separation parameter mu (erf(mu*r12)/r12)        ....  0.250000
 RI-approximation to the Coulomb term is turned on
   Number of AuxJ basis functions       .... 540
   RIJ-COSX (HFX calculated with COS-X)).... on


General Settings:
 Integral files         IntName         .... B_N_S0-1
 Hartree-Fock type      HFTyp           .... RHF
 Total Charge           Charge          ....    0
 Multiplicity           Mult            ....    1
 Number of Electrons    NEL             ....   64
 Basis Dimension        Dim             ....  333
 Nuclear Repulsion      ENuc            ....    401.8686013794 Eh

Convergence Acceleration:
 AO-DIIS                CNVDIIS         .... on
   Start iteration      DIISMaxIt       ....    12
   Startup error        DIISStart       ....  0.200000
   # of expansion vecs  DIISMaxEq       ....     5
   Bias factor          DIISBfac        ....   1.050
   Max. coefficient     DIISMaxC        ....  10.000
 MO-DIIS                CNVKDIIS        .... off
 Trust-Rad. Augm. Hess. CNVTRAH         .... auto
   Auto Start mean grad. ratio tolernc. ....  1.125000
   Auto Start start iteration           ....    50
   Auto Start num. interpolation iter.  ....    10
   Max. Number of Micro iterations      ....    24
   Max. Number of Macro iterations      .... Maxiter - #DIIS iter
   Number of Davidson start vectors     ....     2
   Converg. threshold    (grad. norm)   ....   1.000e-05
   Grad. Scal. Fac. for Micro threshold ....   0.100
   Minimum threshold for Micro iter.    ....   1.000e-02
   NR start threshold (gradient norm)   ....   1.000e-04
   Initial trust radius                 ....   0.400
   Minimum AH scaling param. (alpha)    ....   1.000
   Maximum AH scaling param. (alpha)    .... 1000.000
   Quad. conv. algorithm                .... NR
   White noise on init. David. guess    .... on
   Maximum white noise                  ....   0.010
   Pseudo random numbers                .... off
   Inactive MOs                         .... canonical
   Orbital update algorithm             .... Taylor
   Preconditioner                       .... Diag
   Full preconditioner red. dimension   ....   250
 SOSCF                  CNVSOSCF        .... on
   Start iteration      SOSCFMaxIt      ....   150
   Startup grad/error   SOSCFStart      ....  0.003300
   Hessian update       SOSCFHessUp     .... L-BFGS
 Level Shifting         CNVShift        .... on
   Level shift para.    LevelShift      ....    0.2500
   Turn off err/grad.   ShiftErr        ....    0.0010
 Zerner damping         CNVZerner       .... off
 Static damping         CNVDamp         .... on
   Fraction old density DampFac         ....    0.7000
   Max. Damping (<1)    DampMax         ....    0.9800
   Min. Damping (>=0)   DampMin         ....    0.0000
   Turn off err/grad.   DampErr         ....    0.1000

SCF Procedure:
 Maximum # iterations   MaxIter         ....   300
 SCF integral mode      SCFMode         .... Direct
   Integral package                     .... SHARK and LIBINT hybrid scheme
 Reset frequency        DirectResetFreq ....    20
 Integral Threshold     Thresh          ....  2.500e-11 Eh
 Primitive CutOff       TCut            ....  2.500e-12 Eh

Convergence Tolerance:
 Convergence Check Mode ConvCheckMode   .... Total+1el-Energy
 Convergence forced     ConvForced      .... 0
 Energy Change          TolE            ....  1.000e-08 Eh
 1-El. energy change                    ....  1.000e-05 Eh
 Orbital Gradient       TolG            ....  1.000e-05
 Orbital Rotation angle TolX            ....  1.000e-05
 DIIS Error             TolErr          ....  5.000e-07

------------------------------
INITIAL GUESS: MODEL POTENTIAL
------------------------------
Loading Hartree-Fock densities                     ... done
Calculating cut-offs                               ... done
Initializing the effective Hamiltonian             ... done
Setting up the integral package (SHARK)            ... done
Starting the Coulomb interaction                   ... done (   0.1 sec)
Making the grid                                    ... done (   0.2 sec)
Mapping shells                                     ... done
Starting the XC term evaluation                    ... done (   0.1 sec)
  promolecular density results
     # of electrons  =     63.996369230
     EX              =    -50.037739621
     EC              =     -2.099889260
     EX+EC           =    -52.137628881
Transforming the Hamiltonian                       ... done (   0.0 sec)
Diagonalizing the Hamiltonian                      ... done (   0.0 sec)
Back transforming the eigenvectors                 ... done (   0.0 sec)
Now organizing SCF variables                       ... done
                      ------------------
                      INITIAL GUESS DONE (   0.5 sec)
                      ------------------
             **** ENERGY FILE WAS UPDATED (B_N_S0-1.en.tmp) ****
Finished Guess after   1.5 sec
Maximum memory used throughout the entire GUESS-calculation: 22.5 MB


           ************************************************************
           *        Program running with 5 parallel MPI-processes     *
           *              working on a common directory               *
           ************************************************************

-------------------------------------------------------------------------------------------
                                      ORCA LEAN-SCF
                              memory conserving SCF solver
-------------------------------------------------------------------------------------------

--------------------
CPCM SOLVATION MODEL
--------------------
CPCM parameters:
  Epsilon                                         ...       8.9990
  Refrac                                          ...       1.4242
  Rsolv                                           ...       1.3000
  Surface type                                    ... GAUSSIAN VDW
  Discretization scheme                           ... Constant charge density
    Threshold for H atoms                         ...       5.0000 (charges/Ang^2)
    Threshold for non-H atoms                     ...       5.0000 (charges/Ang^2)
  Epsilon function type                           ...         CPCM
Solvent:                                          ... DICHLOROMETHANE
Radii:
  Scheme                                          ... Element-dependent radii
  Radius for C  used is    3.8550 Bohr (=   2.0400 Ang.)
  Radius for H  used is    2.4944 Bohr (=   1.3200 Ang.)
  Radius for N  used is    3.5149 Bohr (=   1.8600 Ang.)
Calculating surface                               ...        done! (  0.0s)
Cavity surface points                             ...         1674
Cavity Volume                                     ...    1103.9665
Cavity Surface-area                               ...     611.4556
Calculating surface distance matrix               ...        done! (  0.0s)
Performing Cholesky decomposition & store         ...        done! (  0.1s)
Overall time for CPCM initialization              ...                 0.1s

----------------------------------------D-I-I-S--------------------------------------------
Iteration    Energy (Eh)           Delta-E    RMSDP     MaxDP     DIISErr   Damp  Time(sec)
-------------------------------------------------------------------------------------------
               ***  Starting incremental Fock matrix formation  ***
    1    -364.7928866359546305     0.00e+00  1.21e-03  3.75e-02  2.45e-01  0.700   6.0
    2    -364.8853519678838779    -9.25e-02  1.01e-03  3.33e-02  1.32e-01  0.700   3.2
                               ***Turning on AO-DIIS***
    3    -364.9331053944920882    -4.78e-02  5.80e-04  1.51e-02  5.92e-02  0.700   3.2
    4    -364.9616990665878689    -2.86e-02  1.29e-03  3.22e-02  4.14e-02  0.000   3.2
    5    -365.0230454901241615    -6.13e-02  1.63e-04  4.37e-03  7.64e-03  0.000   3.2
    6    -365.0232170782882690    -1.72e-04  6.91e-05  2.13e-03  3.40e-03  0.000   2.9
                              *** Initializing SOSCF ***
---------------------------------------S-O-S-C-F--------------------------------------
Iteration    Energy (Eh)           Delta-E    RMSDP     MaxDP     MaxGrad    Time(sec)
--------------------------------------------------------------------------------------
    7    -365.0232560210536690    -3.89e-05  4.84e-05  1.70e-03  7.33e-04     2.9
               *** Restarting incremental Fock matrix formation ***
    8    -365.0232490898410447     6.93e-06  2.95e-05  6.93e-04  3.58e-04     6.1
    9    -365.0232524161752394    -3.33e-06  1.81e-05  4.78e-04  1.51e-04     4.6
   10    -365.0232531513855179    -7.35e-07  5.81e-06  1.34e-04  6.43e-05     4.5
   11    -365.0232532636685505    -1.12e-07  1.83e-06  5.74e-05  2.07e-05     4.2
   12    -365.0232532846559366    -2.10e-08  1.84e-06  5.82e-05  6.04e-06     3.8
   13    -365.0232532848423830    -1.86e-10  1.11e-06  3.42e-05  5.83e-06     3.5
                 **** Energy Check signals convergence ****

               *****************************************************
               *                     SUCCESS                       *
               *           SCF CONVERGED AFTER  13 CYCLES          *
               *****************************************************

Recomputing exchange energy using gridx3       ... done (   10.318 sec)
Old exchange energy                            :    -16.854952931 Eh
New exchange energy                            :    -16.854951167 Eh
Exchange energy change after final integration :      0.000001764 Eh
Total energy after final integration           :   -365.023251521 Eh
             **** ENERGY FILE WAS UPDATED (B_N_S0-1.en.tmp) ****

----------------
TOTAL SCF ENERGY
----------------

Total Energy       :       -365.02325152066578 Eh           -9932.78765 eV

Components:
Nuclear Repulsion  :        401.86860137938794 Eh           10935.40059 eV
Electronic Energy  :       -766.87980287908726 Eh          -20867.86034 eV
One Electron Energy:      -1287.78728930875900 Eh          -35042.47367 eV
Two Electron Energy:        520.90748642967174 Eh           14174.61333 eV
CPCM Dielectric    :         -0.01205178514305 Eh              -0.32795 eV

Virial components:
Potential Energy   :       -727.97303015195882 Eh          -19809.15323 eV
Kinetic Energy     :        362.94977863129304 Eh            9876.36558 eV
Virial Ratio       :          2.00571283690320

DFT components:
N(Alpha)           :       31.999997160318 electrons
N(Beta)            :       31.999997160318 electrons
N(Total)           :       63.999994320637 electrons
E(XC)              :      -36.698014695629 Eh       

CPCM Solvation Model Properties:
Surface-charge          :         -0.02626554698697
Corrected charge        :         -0.00000000000000
Outlying charge corr.   :          0.00004531259369 Eh               0.00123 eV
Free-energy (cav+disp)  :  This term is not implemented in the current solvation scheme

---------------
SCF CONVERGENCE
---------------

  Last Energy change         ...    1.8645e-10  Tolerance :   1.0000e-08
  Last MAX-Density change    ...    3.4168e-05  Tolerance :   1.0000e-07
  Last RMS-Density change    ...    1.1086e-06  Tolerance :   5.0000e-09
  Last DIIS Error            ...    7.3335e-04  Tolerance :   5.0000e-07
  Last Orbital Gradient      ...    5.8312e-06  Tolerance :   1.0000e-05
  Last Orbital Rotation      ...    1.7651e-05  Tolerance :   1.0000e-05


----------------
ORBITAL ENERGIES
----------------

  NO   OCC          E(Eh)            E(eV) 
   0   2.0000     -14.407984      -392.0612 
   1   2.0000     -10.337444      -281.2962 
   2   2.0000     -10.309075      -280.5242 
   3   2.0000     -10.302780      -280.3529 
   4   2.0000     -10.290201      -280.0106 
   5   2.0000     -10.286275      -279.9038 
   6   2.0000     -10.283862      -279.8381 
   7   2.0000     -10.281621      -279.7771 
   8   2.0000     -10.278559      -279.6938 
   9   2.0000      -1.016396       -27.6575 
  10   2.0000      -0.977330       -26.5945 
  11   2.0000      -0.893832       -24.3224 
  12   2.0000      -0.876172       -23.8419 
  13   2.0000      -0.806405       -21.9434 
  14   2.0000      -0.745165       -20.2770 
  15   2.0000      -0.715468       -19.4689 
  16   2.0000      -0.685793       -18.6614 
  17   2.0000      -0.620138       -16.8748 
  18   2.0000      -0.581489       -15.8231 
  19   2.0000      -0.571436       -15.5496 
  20   2.0000      -0.545760       -14.8509 
  21   2.0000      -0.531584       -14.4651 
  22   2.0000      -0.523371       -14.2416 
  23   2.0000      -0.507280       -13.8038 
  24   2.0000      -0.476099       -12.9553 
  25   2.0000      -0.474188       -12.9033 
  26   2.0000      -0.447163       -12.1679 
  27   2.0000      -0.438784       -11.9399 
  28   2.0000      -0.433978       -11.8091 
  29   2.0000      -0.348381        -9.4799 
  30   2.0000      -0.341989        -9.3060 
  31   2.0000      -0.332588        -9.0502 
  32   0.0000       0.016784         0.4567 
  33   0.0000       0.058023         1.5789 
  34   0.0000       0.111785         3.0418 
  35   0.0000       0.128796         3.5047 
  36   0.0000       0.143165         3.8957 
  37   0.0000       0.155229         4.2240 
  38   0.0000       0.176762         4.8099 
  39   0.0000       0.191731         5.2173 
  40   0.0000       0.193196         5.2571 
  41   0.0000       0.198550         5.4028 
  42   0.0000       0.205905         5.6030 
*Only the first 10 virtual orbitals were printed.

                    ********************************
                    * MULLIKEN POPULATION ANALYSIS *
                    ********************************

-----------------------
MULLIKEN ATOMIC CHARGES
-----------------------
   0 C :    0.127350
   1 C :   -0.232019
   2 C :    0.043382
   3 C :   -0.125525
   4 C :   -0.194953
   5 C :   -0.171588
   6 H :    0.156317
   7 H :    0.159861
   8 H :    0.152758
   9 H :    0.159493
  10 C :   -0.467904
  11 C :   -0.032305
  12 N :   -0.468167
  13 H :    0.159477
  14 H :    0.268006
  15 H :    0.162608
  16 H :    0.157270
  17 H :    0.145935
Sum of atomic charges:    0.0000000

--------------------------------
MULLIKEN REDUCED ORBITAL CHARGES
--------------------------------
  0 C s       :     3.154391  s :     3.154391
      pz      :     0.898461  p :     2.564477
      px      :     0.844965
      py      :     0.821051
      dz2     :     0.004271  d :     0.144137
      dxz     :     0.025352
      dyz     :     0.021311
      dx2y2   :     0.040997
      dxy     :     0.052206
      f0      :     0.001597  f :     0.009645
      f+1     :     0.000684
      f-1     :     0.000780
      f+2     :     0.001015
      f-2     :     0.000986
      f+3     :     0.001444
      f-3     :     0.003140

  1 C s       :     3.231879  s :     3.231879
      pz      :     0.984873  p :     2.902220
      px      :     0.926465
      py      :     0.990882
      dz2     :     0.004946  d :     0.090627
      dxz     :     0.018532
      dyz     :     0.007204
      dx2y2   :     0.031257
      dxy     :     0.028688
      f0      :     0.001527  f :     0.007292
      f+1     :     0.000613
      f-1     :     0.000637
      f+2     :     0.000644
      f-2     :     0.000610
      f+3     :     0.001175
      f-3     :     0.002087

  2 C s       :     3.154629  s :     3.154629
      pz      :     0.983478  p :     2.667301
      px      :     0.844441
      py      :     0.839382
      dz2     :     0.005982  d :     0.125346
      dxz     :     0.015302
      dyz     :     0.020424
      dx2y2   :     0.041766
      dxy     :     0.041872
      f0      :     0.001671  f :     0.009342
      f+1     :     0.000848
      f-1     :     0.000704
      f+2     :     0.000544
      f-2     :     0.000992
      f+3     :     0.001780
      f-3     :     0.002803

  3 C s       :     3.187744  s :     3.187744
      pz      :     0.935559  p :     2.839766
      px      :     0.977332
      py      :     0.926875
      dz2     :     0.004545  d :     0.090703
      dxz     :     0.005626
      dyz     :     0.023340
      dx2y2   :     0.032559
      dxy     :     0.024633
      f0      :     0.001551  f :     0.007313
      f+1     :     0.000665
      f-1     :     0.000544
      f+2     :     0.000261
      f-2     :     0.001103
      f+3     :     0.001141
      f-3     :     0.002048

  4 C s       :     3.218685  s :     3.218685
      pz      :     0.977840  p :     2.882539
      px      :     0.942883
      py      :     0.961816
      dz2     :     0.004430  d :     0.086437
      dxz     :     0.015083
      dyz     :     0.011288
      dx2y2   :     0.023738
      dxy     :     0.031897
      f0      :     0.001559  f :     0.007292
      f+1     :     0.000611
      f-1     :     0.000643
      f+2     :     0.001027
      f-2     :     0.000244
      f+3     :     0.001176
      f-3     :     0.002032

  5 C s       :     3.202493  s :     3.202493
      pz      :     0.947319  p :     2.870288
      px      :     0.967112
      py      :     0.955857
      dz2     :     0.004698  d :     0.091383
      dxz     :     0.022624
      dyz     :     0.007119
      dx2y2   :     0.025017
      dxy     :     0.031925
      f0      :     0.001529  f :     0.007424
      f+1     :     0.000619
      f-1     :     0.000625
      f+2     :     0.000627
      f-2     :     0.000743
      f+3     :     0.001261
      f-3     :     0.002019

  6 H s       :     0.821706  s :     0.821706
      pz      :     0.004554  p :     0.021977
      px      :     0.007462
      py      :     0.009962

  7 H s       :     0.817928  s :     0.817928
      pz      :     0.004355  p :     0.022211
      px      :     0.004808
      py      :     0.013048

  8 H s       :     0.825004  s :     0.825004
      pz      :     0.004536  p :     0.022238
      px      :     0.005296
      py      :     0.012406

  9 H s       :     0.818706  s :     0.818706
      pz      :     0.004291  p :     0.021801
      px      :     0.013765
      py      :     0.003745

 10 C s       :     3.357478  s :     3.357478
      pz      :     1.051483  p :     3.053265
      px      :     1.058863
      py      :     0.942919
      dz2     :     0.006461  d :     0.053992
      dxz     :     0.013930
      dyz     :     0.008743
      dx2y2   :     0.014306
      dxy     :     0.010552
      f0      :     0.000324  f :     0.003170
      f+1     :     0.001021
      f-1     :    -0.000046
      f+2     :    -0.000014
      f-2     :     0.000355
      f+3     :     0.000753
      f-3     :     0.000775

 11 C s       :     3.249232  s :     3.249232
      pz      :     0.823790  p :     2.659464
      px      :     0.832529
      py      :     1.003145
      dz2     :     0.003929  d :     0.113427
      dxz     :     0.030518
      dyz     :     0.007357
      dx2y2   :     0.051294
      dxy     :     0.020330
      f0      :     0.001706  f :     0.010181
      f+1     :     0.000949
      f-1     :     0.000688
      f+2     :     0.000442
      f-2     :     0.001374
      f+3     :     0.002867
      f-3     :     0.002155

 12 N s       :     3.550937  s :     3.550937
      pz      :     1.170255  p :     3.877427
      px      :     1.550913
      py      :     1.156259
      dz2     :     0.004791  d :     0.036878
      dxz     :     0.010628
      dyz     :     0.000705
      dx2y2   :     0.014472
      dxy     :     0.006281
      f0      :     0.000420  f :     0.002924
      f+1     :     0.000149
      f-1     :     0.000333
      f+2     :     0.000025
      f-2     :     0.000544
      f+3     :     0.000654
      f-3     :     0.000800

 13 H s       :     0.819206  s :     0.819206
      pz      :     0.003425  p :     0.021317
      px      :     0.003672
      py      :     0.014220

 14 H s       :     0.695390  s :     0.695390
      pz      :     0.007056  p :     0.036604
      px      :     0.009230
      py      :     0.020318

 15 H s       :     0.816885  s :     0.816885
      pz      :     0.009273  p :     0.020507
      px      :     0.007339
      py      :     0.003894

 16 H s       :     0.821903  s :     0.821903
      pz      :     0.010380  p :     0.020827
      px      :     0.006334
      py      :     0.004113

 17 H s       :     0.832860  s :     0.832860
      pz      :     0.004122  p :     0.021204
      px      :     0.006511
      py      :     0.010572



                     *******************************
                     * LOEWDIN POPULATION ANALYSIS *
                     *******************************

----------------------
LOEWDIN ATOMIC CHARGES
----------------------
   0 C :   -0.120145
   1 C :   -0.120480
   2 C :   -0.120914
   3 C :   -0.137019
   4 C :   -0.153204
   5 C :   -0.104604
   6 H :    0.151379
   7 H :    0.156715
   8 H :    0.154397
   9 H :    0.152801
  10 C :   -0.267834
  11 C :   -0.207211
  12 N :   -0.096880
  13 H :    0.146851
  14 H :    0.154707
  15 H :    0.138455
  16 H :    0.136659
  17 H :    0.136328

-------------------------------
LOEWDIN REDUCED ORBITAL CHARGES
-------------------------------
  0 C s       :     2.720670  s :     2.720670
      pz      :     0.817648  p :     2.842001
      px      :     1.024227
      py      :     1.000126
      dz2     :     0.031010  d :     0.503532
      dxz     :     0.073625
      dyz     :     0.071858
      dx2y2   :     0.159343
      dxy     :     0.167695
      f0      :     0.003802  f :     0.053943
      f+1     :     0.003750
      f-1     :     0.003958
      f+2     :     0.007062
      f-2     :     0.005968
      f+3     :     0.009423
      f-3     :     0.019981

  1 C s       :     2.761722  s :     2.761722
      pz      :     0.896810  p :     2.941149
      px      :     1.033298
      py      :     1.011042
      dz2     :     0.025648  d :     0.376411
      dxz     :     0.061472
      dyz     :     0.021289
      dx2y2   :     0.133364
      dxy     :     0.134639
      f0      :     0.002873  f :     0.041198
      f+1     :     0.004067
      f-1     :     0.003157
      f+2     :     0.004049
      f-2     :     0.004173
      f+3     :     0.008765
      f-3     :     0.014113

  2 C s       :     2.719458  s :     2.719458
      pz      :     0.877806  p :     2.881086
      px      :     0.981875
      py      :     1.021406
      dz2     :     0.033134  d :     0.469426
      dxz     :     0.048477
      dyz     :     0.069334
      dx2y2   :     0.162996
      dxy     :     0.155484
      f0      :     0.003485  f :     0.050945
      f+1     :     0.003912
      f-1     :     0.004137
      f+2     :     0.003702
      f-2     :     0.007019
      f+3     :     0.011436
      f-3     :     0.017254

  3 C s       :     2.766156  s :     2.766156
      pz      :     0.861600  p :     2.936206
      px      :     0.999765
      py      :     1.074841
      dz2     :     0.025267  d :     0.391212
      dxz     :     0.013945
      dyz     :     0.080639
      dx2y2   :     0.162852
      dxy     :     0.108509
      f0      :     0.003060  f :     0.043445
      f+1     :     0.003093
      f-1     :     0.004246
      f+2     :     0.001806
      f-2     :     0.007440
      f+3     :     0.009123
      f-3     :     0.014677

  4 C s       :     2.764378  s :     2.764378
      pz      :     0.894843  p :     2.962059
      px      :     1.040960
      py      :     1.026256
      dz2     :     0.025300  d :     0.383834
      dxz     :     0.050370
      dyz     :     0.036046
      dx2y2   :     0.108191
      dxy     :     0.163927
      f0      :     0.003023  f :     0.042933
      f+1     :     0.003871
      f-1     :     0.003565
      f+2     :     0.006893
      f-2     :     0.001693
      f+3     :     0.009183
      f-3     :     0.014705

  5 C s       :     2.761951  s :     2.761951
      pz      :     0.865650  p :     2.916696
      px      :     1.053904
      py      :     0.997143
      dz2     :     0.025258  d :     0.384326
      dxz     :     0.073136
      dyz     :     0.020786
      dx2y2   :     0.134781
      dxy     :     0.130364
      f0      :     0.002922  f :     0.041631
      f+1     :     0.003974
      f-1     :     0.003153
      f+2     :     0.004174
      f-2     :     0.004733
      f+3     :     0.009014
      f-3     :     0.013661

  6 H s       :     0.789153  s :     0.789153
      pz      :     0.013368  p :     0.059468
      px      :     0.020054
      py      :     0.026047

  7 H s       :     0.783539  s :     0.783539
      pz      :     0.012978  p :     0.059746
      px      :     0.013514
      py      :     0.033254

  8 H s       :     0.785925  s :     0.785925
      pz      :     0.013553  p :     0.059678
      px      :     0.014575
      py      :     0.031550

  9 H s       :     0.788079  s :     0.788079
      pz      :     0.012577  p :     0.059119
      px      :     0.035247
      py      :     0.011295

 10 C s       :     2.826250  s :     2.826250
      pz      :     1.064460  p :     3.164769
      px      :     1.066363
      py      :     1.033946
      dz2     :     0.037395  d :     0.252631
      dxz     :     0.064495
      dyz     :     0.028132
      dx2y2   :     0.055786
      dxy     :     0.066822
      f0      :     0.002296  f :     0.024184
      f+1     :     0.003683
      f-1     :     0.002856
      f+2     :     0.003021
      f-2     :     0.002214
      f+3     :     0.004985
      f-3     :     0.005128

 11 C s       :     2.806311  s :     2.806311
      pz      :     0.792025  p :     2.832488
      px      :     1.024413
      py      :     1.016050
      dz2     :     0.030054  d :     0.509312
      dxz     :     0.093786
      dyz     :     0.019684
      dx2y2   :     0.246218
      dxy     :     0.119570
      f0      :     0.004165  f :     0.059099
      f+1     :     0.005499
      f-1     :     0.003884
      f+2     :     0.002354
      f-2     :     0.008862
      f+3     :     0.020314
      f-3     :     0.014020

 12 N s       :     3.141986  s :     3.141986
      pz      :     1.103467  p :     3.817805
      px      :     1.514742
      py      :     1.199597
      dz2     :     0.012330  d :     0.125990
      dxz     :     0.014082
      dyz     :     0.005968
      dx2y2   :     0.064386
      dxy     :     0.029224
      f0      :     0.000777  f :     0.011098
      f+1     :     0.000922
      f-1     :     0.001451
      f+2     :     0.000187
      f-2     :     0.001342
      f+3     :     0.003688
      f-3     :     0.002731

 13 H s       :     0.794834  s :     0.794834
      pz      :     0.010266  p :     0.058316
      px      :     0.010553
      py      :     0.037497

 14 H s       :     0.733719  s :     0.733719
      pz      :     0.020377  p :     0.111573
      px      :     0.029452
      py      :     0.061744

 15 H s       :     0.802519  s :     0.802519
      pz      :     0.026734  p :     0.059026
      px      :     0.020579
      py      :     0.011713

 16 H s       :     0.803921  s :     0.803921
      pz      :     0.029347  p :     0.059420
      px      :     0.018052
      py      :     0.012021

 17 H s       :     0.805726  s :     0.805726
      pz      :     0.012316  p :     0.057946
      px      :     0.019560
      py      :     0.026070



                      *****************************
                      * MAYER POPULATION ANALYSIS *
                      *****************************

  NA   - Mulliken gross atomic population
  ZA   - Total nuclear charge
  QA   - Mulliken gross atomic charge
  VA   - Mayer's total valence
  BVA  - Mayer's bonded valence
  FA   - Mayer's free valence

  ATOM       NA         ZA         QA         VA         BVA        FA
  0 C      5.8726     6.0000     0.1274     3.6344     3.6344     0.0000
  1 C      6.2320     6.0000    -0.2320     3.9113     3.9113    -0.0000
  2 C      5.9566     6.0000     0.0434     3.6770     3.6770     0.0000
  3 C      6.1255     6.0000    -0.1255     3.8824     3.8824     0.0000
  4 C      6.1950     6.0000    -0.1950     3.9100     3.9100     0.0000
  5 C      6.1716     6.0000    -0.1716     3.8573     3.8573     0.0000
  6 H      0.8437     1.0000     0.1563     0.9636     0.9636    -0.0000
  7 H      0.8401     1.0000     0.1599     0.9630     0.9630    -0.0000
  8 H      0.8472     1.0000     0.1528     0.9685     0.9685    -0.0000
  9 H      0.8405     1.0000     0.1595     0.9617     0.9617    -0.0000
 10 C      6.4679     6.0000    -0.4679     3.8531     3.8531     0.0000
 11 C      6.0323     6.0000    -0.0323     4.0336     4.0336     0.0000
 12 N      7.4682     7.0000    -0.4682     3.0197     3.0197     0.0000
 13 H      0.8405     1.0000     0.1595     0.9767     0.9767    -0.0000
 14 H      0.7320     1.0000     0.2680     0.9325     0.9325    -0.0000
 15 H      0.8374     1.0000     0.1626     0.9536     0.9536     0.0000
 16 H      0.8427     1.0000     0.1573     0.9549     0.9549     0.0000
 17 H      0.8541     1.0000     0.1459     0.9732     0.9732     0.0000

  Mayer bond orders larger than 0.100000
B(  0-C ,  1-C ) :   1.4236 B(  0-C ,  2-C ) :   1.3220 B(  0-C , 10-C ) :   0.8920 
B(  1-C ,  3-C ) :   1.3958 B(  1-C ,  8-H ) :   0.9728 B(  2-C ,  5-C ) :   1.3651 
B(  2-C , 11-C ) :   0.9798 B(  3-C ,  4-C ) :   1.3948 B(  3-C ,  9-H ) :   0.9791 
B(  4-C ,  5-C ) :   1.3950 B(  4-C ,  6-H ) :   0.9827 B(  5-C ,  7-H ) :   0.9749 
B( 10-C , 15-H ) :   0.9766 B( 10-C , 16-H ) :   0.9713 B( 10-C , 17-H ) :   0.9747 
B( 11-C , 12-N ) :   2.0208 B( 11-C , 13-H ) :   0.9727 B( 12-N , 14-H ) :   0.9065 


-------
TIMINGS
-------

Total SCF time: 0 days 0 hours 1 min 2 sec 

Total time                  ....      62.789 sec
Sum of individual times     ....      62.721 sec  ( 99.9%)

SCF preparation             ....       1.190 sec  (  1.9%)
Fock matrix formation       ....      60.546 sec  ( 96.4%)
  Startup                   ....       0.072 sec  (  0.1% of F)
  Split-RI-J                ....       2.701 sec  (  4.5% of F)
  Chain of spheres X        ....      48.139 sec  ( 79.5% of F)
  XC integration            ....       5.992 sec  (  9.9% of F)
    XC Preparation          ....       0.000 sec  (  0.0% of XC)
    Basis function eval.    ....       1.792 sec  ( 29.9% of XC)
    Density eval.           ....       1.317 sec  ( 22.0% of XC)
    XC-Functional eval.     ....       0.311 sec  (  5.2% of XC)
    XC-Potential eval.      ....       2.199 sec  ( 36.7% of XC)
  CPCM terms                ....       3.431 sec  (  5.7% of F)
Diagonalization             ....       0.000 sec  (  0.0%)
Density matrix formation    ....       0.129 sec  (  0.2%)
Total Energy calculation    ....       0.103 sec  (  0.2%)
Population analysis         ....       0.041 sec  (  0.1%)
Orbital Transformation      ....       0.079 sec  (  0.1%)
Orbital Orthonormalization  ....       0.000 sec  (  0.0%)
DIIS solution               ....       0.437 sec  (  0.7%)
SOSCF solution              ....       0.196 sec  (  0.3%)
Finished LeanSCF after  62.9 sec

Maximum memory used throughout the entire LEANSCF-calculation: 37.3 MB


           ************************************************************
           *        Program running with 5 parallel MPI-processes     *
           *              working on a common directory               *
           ************************************************************

------------------------------------------------------------------------------
                         ORCA PROPERTY INTEGRAL CALCULATIONS
------------------------------------------------------------------------------

GBWName                                   ... B_N_S0-1.gbw
Number of atoms                           ...     18
Number of basis functions                 ...    333
Max core memory                           ...   4000 MB

Dipole integrals                          ... YES
Quadrupole integrals                      ...  NO
Linear momentum integrals                 ...  NO
Angular momentum integrals                ...  NO
Higher moments length integrals           ...  NO
Higher moments velocity integrals         ...  NO
Kinetic energy integrals                  ...  NO
GIAO right hand sides                     ...  NO
GIAO dipole derivative integrals          ...  NO
SOC integrals                             ...  NO
EPR diamagnetic integrals (GIAO)          ...  NO
EPR gauge integrals                       ...  NO
Field gradient integrals                  ...  NO (   0 nuclei)
Spin-dipole/Fermi contact integrals       ...  NO (   0 nuclei)
Contact density integrals                 ...  NO (   0 nuclei)
Nucleus-orbit integrals                   ...  NO (   0 nuclei)
Geometric perturbations                   ...  NO (  18 nuclei)

Choice of electric origin   ... Center of mass
Position of electric origin ... ( -0.1601,  0.3513, -0.0188) 
Choice of magnetic origin   ... GIAO
Position of magnetic origin ... (  0.0000,  0.0000,  0.0000) 

Calculating integrals                     ... Electric Dipole (Length)     done (  0.0 sec)

Property integrals calculated in   0.0 sec

Maximum memory used throughout the entire PROPINT-calculation: 22.1 MB


-------------------------------------------------------------------------------
                          DFT DISPERSION CORRECTION                            
                                                                               
                              DFTD3 V3.1  Rev 1                                
                              USING zero damping                               
-------------------------------------------------------------------------------
The omegaB97X-D3 functional is recognized. Fit by Chai et al.
Active option DFTDOPT                   ...         3   

molecular C6(AA) [au] = 3561.565258 


            DFT-D V3
 parameters
 s6 scaling factor         :     1.0000 
 rs6 scaling factor        :     1.2810 
 s8 scaling factor         :     1.0000 
 rs8 scaling factor        :     1.0940 
 Damping factor alpha6     :    14.0000 
 Damping factor alpha8     :    16.0000 
 ad hoc parameters k1-k3   :    16.0000     1.3333    -4.0000 

 Edisp/kcal,au: -3.275307850962  -0.005219534743 
 E6   /kcal   :  -1.388953476 
 E8   /kcal   :  -1.886354375 
 % E8         :  57.593193079 

-------------------------   ----------------
Dispersion correction           -0.005219535
-------------------------   ----------------


-------------------------   --------------------
FINAL SINGLE POINT ENERGY      -365.028471055409
-------------------------   --------------------



           ************************************************************
           *        Program running with 5 parallel MPI-processes     *
           *              working on a common directory               *
           ************************************************************
------------------------------------------------------------------------------
                         ORCA SCF GRADIENT CALCULATION
------------------------------------------------------------------------------

Nuc. rep. gradient        (SHARK) ... done (  0.0 sec)
HCore & Overlap gradient  (SHARK) ... done (  0.2 sec)
Split-RIJ-J gradient      (SHARK) ... done (  1.0 sec)
COSX-gradient                     ... done ( 26.4 sec)
XC gradient                       ... done (  2.8 sec)
CPCM gradient                     ... done (  1.0 sec)
Dispersion correction             ... done (  0.0 sec)

-------------------
DISPERSION GRADIENT
-------------------

   1   C   :   -0.000119953    0.000056373   -0.000006680
   2   C   :    0.000062344    0.000064892    0.000006576
   3   C   :   -0.000157890    0.000064659   -0.000005784
   4   C   :    0.000075039   -0.000039834    0.000001150
   5   C   :    0.000069246   -0.000022771    0.000001380
   6   C   :    0.000008166   -0.000108700    0.000001231
   7   H   :    0.000027900   -0.000019904    0.000000291
   8   H   :   -0.000042698   -0.000028098    0.000000341
   9   H   :    0.000011127    0.000047324    0.000003317
  10   H   :    0.000032704   -0.000004072    0.000001070
  11   C   :   -0.000080458   -0.000078800   -0.000013423
  12   C   :    0.000001939   -0.000034551   -0.000000587
  13   N   :    0.000046172    0.000112405    0.000012819
  14   H   :    0.000037503   -0.000060195   -0.000004170
  15   H   :    0.000096716    0.000035897    0.000020900
  16   H   :   -0.000080486   -0.000021100   -0.000049190
  17   H   :   -0.000077171   -0.000006103    0.000025623
  18   H   :    0.000089801    0.000042578    0.000005137

Difference to translation invariance:
           :    0.0000000000    0.0000000000    0.0000000000

Difference to rotation invariance:
           :    0.0000000000   -0.0000000000   -0.0000000000

Norm of the Dispersion gradient    ...    0.0003969603
RMS gradient                       ...    0.0000540195
MAX gradient                       ...    0.0001578905

------------------
CARTESIAN GRADIENT
------------------

   1   C   :   -0.008338507    0.005112523   -0.000493936
   2   C   :    0.009549937    0.015470716    0.001293946
   3   C   :   -0.010749921    0.006877380   -0.001571087
   4   C   :    0.006154862    0.000704402    0.000208238
   5   C   :    0.005014104   -0.001540387    0.000369864
   6   C   :   -0.005300967   -0.012088918   -0.000213750
   7   H   :    0.000297499    0.001052003   -0.000019678
   8   H   :    0.004168416   -0.000982840   -0.000076429
   9   H   :    0.004307779   -0.001852352   -0.000052447
  10   H   :   -0.000766480   -0.000576793   -0.000164347
  11   C   :    0.005311844   -0.007676691   -0.000850371
  12   C   :    0.003929938   -0.057460163    0.004458876
  13   N   :    0.008554281    0.027423518   -0.000918349
  14   H   :   -0.004073212    0.003038359   -0.000945283
  15   H   :   -0.020379166    0.009914179   -0.002551701
  16   H   :   -0.001889444   -0.001466964    0.012735828
  17   H   :    0.000092914    0.000542199   -0.011982264
  18   H   :    0.004116123    0.013509829    0.000772890

Difference to translation invariance:
           :   -0.0000000000    0.0000000000   -0.0000000000

Difference to rotation invariance:
           :    0.0003535550   -0.0001269399    0.0008642930

Norm of the Cartesian gradient     ...    0.0786506212
RMS gradient                       ...    0.0107029939
MAX gradient                       ...    0.0574601625

-------
TIMINGS
-------

Total SCF gradient time     ....       31.461 sec

Densities                   ....       0.003 sec  (  0.0%)
One electron gradient       ....       0.158 sec  (  0.5%)
RI-J Coulomb gradient       ....       0.973 sec  (  3.1%)
COSX gradient               ....      26.444 sec  ( 84.1%)
XC gradient                 ....       2.838 sec  (  9.0%)
CPCM gradient               ....       1.009 sec  (  3.2%)
   A-Matrix (El+Nuc)        ....       0.112 sec  (  0.4%)
   Potential                ....       0.896 sec  (  2.8%)

Maximum memory used throughout the entire SCFGRAD-calculation: 44.5 MB
------------------------------------------------------------------------------
                         ORCA GEOMETRY RELAXATION STEP
------------------------------------------------------------------------------

Reading the OPT-File                    .... done
Getting information on internals        .... done
Copying old internal coords+grads       .... done
Making the new internal coordinates     .... (2022 redundants) done
Validating the new internal coordinates .... (2022 redundants) done
Calculating the B-matrix                .... done
Calculating the G,G- and P matrices     .... done
Transforming gradient to internals      .... done
Projecting the internal gradient        .... done
Number of atoms                         ....  18
Number of internal coordinates          ....  81
Current Energy                          ....  -365.028471055 Eh
Current gradient norm                   ....     0.078650621 Eh/bohr
Maximum allowed component of the step   ....  0.300
Current trust radius                    ....  0.300
Evaluating the initial hessian          ....  (Almloef) done
Projecting the Hessian                  .... done
Forming the augmented Hessian           .... done
Diagonalizing the augmented Hessian     .... done
Last element of RFO vector              ....  0.985811187
Lowest eigenvalues of augmented Hessian:
 -0.012002329  0.011495514  0.012454423  0.017881124  0.018380772
Length of the computed step             ....  0.170273970
The final length of the internal step   ....  0.170273970
Converting the step to Cartesian space:
 Initial RMS(Int)=    0.0189193300
Transforming coordinates:
 Iter   0:  RMS(Cart)=    0.0502077843 RMS(Int)=    0.6980727388
 Iter   5:  RMS(Cart)=    0.0000000772 RMS(Int)=    0.0000000675
done
Storing new coordinates                 .... done

                                .--------------------.
          ----------------------|Geometry convergence|-------------------------
[...]
     29      -0.000265   0.004867  -0.002781  -0.007773   0.006408  -0.000003
     30      -0.073887  -0.001516   0.001419  -0.000768   0.000199   0.000064
     31      -0.055870  -0.001349   0.001437  -0.000717   0.000334   0.000058
     32      -0.000455  -0.000457   0.000572  -0.000292   0.000085   0.001055
     33       0.000246  -0.000306  -0.000838  -0.000159  -0.000380   0.005065
     34       0.000749  -0.000773  -0.001287  -0.000456  -0.000465   0.001538
     35      -0.000270   0.000237   0.000411   0.000126   0.000113   0.000056
     36      -0.000151   0.000134   0.000373   0.000102   0.000248   0.014007
     37      -0.000357   0.000068   0.000119   0.000056   0.000069   0.064121
     38       0.000010   0.000027   0.000016   0.000006   0.000015  -0.026053
     39      -0.001669   0.003049   0.005635   0.001379   0.001810  -0.007864
     40      -0.008121   0.008172   0.015382   0.003877   0.004666  -0.016954
     41       0.003492  -0.002787  -0.005268  -0.001260  -0.001530   0.006919
     42       0.002680  -0.000371  -0.001170  -0.000210  -0.000770  -0.255845
     43       0.003973   0.000115  -0.001161  -0.000161  -0.000927  -0.897946
     44       0.000331  -0.000461   0.000041  -0.000158   0.000143   0.350280
     45       0.396976   0.005166  -0.003521   0.001358   0.000643   0.005458
     46       0.056583   0.001310  -0.001277   0.001082  -0.000380   0.001615
     47      -0.349999  -0.004391   0.003060  -0.001165  -0.000284  -0.002841
     48       0.026224   0.000953  -0.000583  -0.000048   0.000654   0.001488
     49      -0.036697  -0.000789   0.000452   0.000154  -0.000402   0.006978
     50       0.097889   0.003322  -0.002892   0.001198   0.000625  -0.005294
     51       0.465998   0.011541  -0.012401   0.005796  -0.002552   0.001627
     52       0.642035   0.017942  -0.020206   0.009553  -0.004373   0.001926
     53       0.256555   0.006766  -0.007595   0.003613  -0.001589  -0.000365


-----------
IR SPECTRUM
-----------

 Mode   freq       eps      Int      T**2         TX        TY        TZ
       cm**-1   L/(mol*cm) km/mol    a.u.
----------------------------------------------------------------------------
  6:     72.74   0.000495    2.50  0.002122  (-0.033599 -0.025600  0.018384)
  7:    168.54   0.000729    3.68  0.001349  ( 0.020141  0.009848  0.029096)
  8:    237.76   0.000386    1.95  0.000507  ( 0.005047  0.021871 -0.001655)
  9:    254.11   0.000425    2.15  0.000522  (-0.012930  0.005169  0.018118)
 10:    259.02   0.000936    4.73  0.001128  ( 0.006968  0.032442 -0.005167)
 11:    375.12   0.000499    2.52  0.000415  (-0.007624  0.016740 -0.008755)
 12:    419.85   0.000239    1.21  0.000178  ( 0.009081  0.004034  0.008898)
 13:    450.93   0.000855    4.32  0.000592  ( 0.012657 -0.008130  0.019120)
 14:    518.76   0.001642    8.30  0.000988  (-0.005759  0.000904 -0.030880)
 15:    575.92   0.000126    0.64  0.000068  (-0.005040  0.004863 -0.004388)
 16:    643.73   0.003980   20.12  0.001930  (-0.019594 -0.033277  0.020937)
 17:    735.59   0.000239    1.21  0.000101  ( 0.001679  0.001356  0.009833)
 18:    743.82   0.001771    8.95  0.000743  ( 0.004241  0.026012  0.006954)
 19:    773.01   0.026295  132.88  0.010615  ( 0.001380  0.004434  0.102925)
 20:    863.58   0.000815    4.12  0.000295  (-0.008861 -0.014689  0.000626)
 21:    881.68   0.001968    9.95  0.000697  ( 0.006150 -0.016634 -0.019550)
 22:    914.53   0.000527    2.66  0.000180  (-0.004225  0.007551  0.010249)
 23:    996.87   0.000007    0.04  0.000002  ( 0.000025  0.000988 -0.001156)
 24:   1015.77   0.000128    0.65  0.000039  (-0.002924  0.005408  0.001297)
 25:   1032.44   0.000008    0.04  0.000003  (-0.000951 -0.000706 -0.001069)
 26:   1065.29   0.001720    8.69  0.000504  (-0.002288  0.011294 -0.019261)
 27:   1086.15   0.001348    6.81  0.000387  (-0.016462  0.010787  0.000164)
 28:   1143.94   0.008667   43.80  0.002364  ( 0.000319  0.021467  0.043627)
 29:   1145.45   0.008572   43.32  0.002335  ( 0.020480 -0.014565 -0.041277)
 30:   1179.85   0.000452    2.28  0.000120  (-0.005375 -0.007580 -0.005762)
 31:   1212.23   0.003422   17.29  0.000881  (-0.007350  0.026515 -0.011124)
 32:   1235.44   0.006848   34.60  0.001730  ( 0.040280 -0.000627  0.010335)
 33:   1249.93   0.022239  112.39  0.005552  ( 0.069300 -0.018669  0.020033)
 34:   1320.13   0.000890    4.50  0.000210  (-0.009543  0.010513  0.002980)
 35:   1334.56   0.011230   56.75  0.002626  ( 0.049021 -0.012114  0.008726)
 36:   1413.52   0.000976    4.93  0.000215  (-0.012366  0.007474 -0.002574)
 37:   1450.03   0.004448   22.48  0.000957  ( 0.030023  0.005513  0.005055)
 38:   1478.55   0.000238    1.20  0.000050  (-0.005348 -0.004637 -0.000438)
 39:   1483.82   0.002667   13.48  0.000561  (-0.003655 -0.004770  0.022907)
 40:   1502.76   0.005763   29.13  0.001197  ( 0.014974  0.031186  0.000237)
 41:   1543.37   0.002154   10.89  0.000436  (-0.003960  0.020209  0.003383)
 42:   1647.96   0.005488   27.73  0.001039  (-0.031254 -0.006922 -0.003795)
 43:   1680.00   0.000870    4.40  0.000162  ( 0.011601 -0.003727 -0.003629)
 44:   1726.32   0.054390  274.86  0.009832  (-0.091917  0.030826 -0.020811)
 45:   3058.70   0.003990   20.17  0.000407  (-0.013041  0.015314 -0.001598)
 46:   3099.02   0.009453   47.77  0.000952  (-0.009583 -0.027826  0.009261)
 47:   3124.80   0.003261   16.48  0.000326  (-0.000136  0.004595  0.017451)
 48:   3151.48   0.003934   19.88  0.000390  (-0.012648 -0.015150 -0.000157)
 49:   3191.36   0.001862    9.41  0.000182  (-0.003800 -0.012948 -0.000139)
 50:   3194.95   0.000239    1.21  0.000023  (-0.004237  0.001973  0.001224)
 51:   3208.19   0.003974   20.08  0.000387  (-0.009029 -0.017465 -0.000082)
 52:   3222.32   0.003488   17.63  0.000338  ( 0.016578 -0.007933  0.000049)
 53:   3533.07   0.001766    8.93  0.000156  ( 0.006857 -0.010170  0.002364)

* The epsilon (eps) is given for a Dirac delta lineshape.
** The dipole moment derivative (T) already includes vibrational overlap.

The first frequency considered to be a vibration is 6
The total number of vibrations considered is 48


--------------------------
THERMOCHEMISTRY AT 298.15K
--------------------------

Temperature         ...   298.15 K
Pressure            ...     1.00 atm
Total Mass          ...   119.17 AMU
Quasi RRHO          ...     True
Cut-Off Frequency   ...     1.00 cm^-1

Throughout the following assumptions are being made:
  (1) The electronic state is orbitally nondegenerate
  (2) There are no thermally accessible electronically excited states
  (3) Hindered rotations indicated by low frequency modes are not
      treated as such but are treated as vibrations and this may
      cause some error
  (4) All equations used are the standard statistical mechanics
      equations for an ideal gas
  (5) All vibrations are strictly harmonic

freq.      72.74  E(vib)   ...       0.49 
freq.     168.54  E(vib)   ...       0.38 
freq.     237.76  E(vib)   ...       0.32 
freq.     254.11  E(vib)   ...       0.30 
freq.     259.02  E(vib)   ...       0.30 
freq.     375.12  E(vib)   ...       0.21 
freq.     419.85  E(vib)   ...       0.18 
freq.     450.93  E(vib)   ...       0.17 
freq.     518.76  E(vib)   ...       0.13 
freq.     575.92  E(vib)   ...       0.11 
freq.     643.73  E(vib)   ...       0.09 
freq.     735.59  E(vib)   ...       0.06 
freq.     743.82  E(vib)   ...       0.06 
freq.     773.01  E(vib)   ...       0.05 
freq.     863.58  E(vib)   ...       0.04 
freq.     881.68  E(vib)   ...       0.04 
freq.     914.53  E(vib)   ...       0.03 
freq.     996.87  E(vib)   ...       0.02 
freq.    1015.77  E(vib)   ...       0.02 
freq.    1032.44  E(vib)   ...       0.02 
freq.    1065.29  E(vib)   ...       0.02 
freq.    1086.15  E(vib)   ...       0.02 
freq.    1143.94  E(vib)   ...       0.01 
freq.    1145.45  E(vib)   ...       0.01 
freq.    1179.85  E(vib)   ...       0.01 
freq.    1212.23  E(vib)   ...       0.01 
freq.    1235.44  E(vib)   ...       0.01 
freq.    1249.93  E(vib)   ...       0.01 
freq.    1320.13  E(vib)   ...       0.01 
freq.    1334.56  E(vib)   ...       0.01 
freq.    1413.52  E(vib)   ...       0.00 
freq.    1450.03  E(vib)   ...       0.00 
freq.    1478.55  E(vib)   ...       0.00 
freq.    1483.82  E(vib)   ...       0.00 
freq.    1502.76  E(vib)   ...       0.00 
freq.    1543.37  E(vib)   ...       0.00 
freq.    1647.96  E(vib)   ...       0.00 
freq.    1680.00  E(vib)   ...       0.00 
freq.    1726.32  E(vib)   ...       0.00 
freq.    3058.70  E(vib)   ...       0.00 
freq.    3099.02  E(vib)   ...       0.00 
freq.    3124.80  E(vib)   ...       0.00 
freq.    3151.48  E(vib)   ...       0.00 
freq.    3191.36  E(vib)   ...       0.00 
freq.    3194.95  E(vib)   ...       0.00 
freq.    3208.19  E(vib)   ...       0.00 
freq.    3222.32  E(vib)   ...       0.00 
freq.    3533.07  E(vib)   ...       0.00 

------------
INNER ENERGY
------------

The inner energy is: U= E(el) + E(ZPE) + E(vib) + E(rot) + E(trans)
    E(el)   - is the total energy from the electronic structure calculation
              = E(kin-el) + E(nuc-el) + E(el-el) + E(nuc-nuc)
    E(ZPE)  - the the zero temperature vibrational energy from the frequency calculation
    E(vib)  - the the finite temperature correction to E(ZPE) due to population
              of excited vibrational states
    E(rot)  - is the rotational thermal energy
    E(trans)- is the translational thermal energy

Summary of contributions to the inner energy U:
Electronic energy                ...   -365.03914527 Eh
Zero point energy                ...      0.15176457 Eh      95.23 kcal/mol
Thermal vibrational correction   ...      0.00504428 Eh       3.17 kcal/mol
Thermal rotational correction    ...      0.00141627 Eh       0.89 kcal/mol
Thermal translational correction ...      0.00141627 Eh       0.89 kcal/mol
-----------------------------------------------------------------------
Total thermal energy                   -364.87950388 Eh


Summary of corrections to the electronic energy:
(perhaps to be used in another calculation)
Total thermal correction                  0.00787682 Eh       4.94 kcal/mol
Non-thermal (ZPE) correction              0.15176457 Eh      95.23 kcal/mol
-----------------------------------------------------------------------
Total correction                          0.15964139 Eh     100.18 kcal/mol


--------
ENTHALPY
--------

The enthalpy is H = U + kB*T
                kB is Boltzmann's constant
Total thermal energy              ...   -364.87950388 Eh 
Thermal Enthalpy correction       ...      0.00094421 Eh       0.59 kcal/mol
-----------------------------------------------------------------------
Total Enthalpy                    ...   -364.87855967 Eh


Note: Only C1 symmetry has been detected, increase convergence thresholds 
      if your molecule has a higher symmetry. Symmetry factor of 1.0 is   
      used for the rotational entropy correction. 
 

Note: Rotational entropy computed according to Herzberg 
Infrared and Raman Spectra, Chapter V,1, Van Nostrand Reinhold, 1945 
Point Group:  C1, Symmetry Number:   1  
Rotational constants in cm-1:     0.097086     0.049015     0.033063 

Vibrational entropy computed according to the QRRHO of S. Grimme
Chem.Eur.J. 2012 18 9955 using a reference frequency of 100.0 cm-1


-------
ENTROPY
-------

The entropy contributions are T*S = T*(S(el)+S(vib)+S(rot)+S(trans))
     S(el)   - electronic entropy
     S(vib)  - vibrational entropy
     S(rot)  - rotational entropy
     S(trans)- translational entropy
The entropies will be listed as multiplied by the temperature to get
units of energy

Electronic entropy                ...      0.00000000 Eh      0.00 kcal/mol
Vibrational entropy               ...      0.00819830 Eh      5.14 kcal/mol
Rotational entropy                ...      0.01364497 Eh      8.56 kcal/mol
Translational entropy             ...      0.01911959 Eh     12.00 kcal/mol
-----------------------------------------------------------------------
Final entropy term                ...      0.04096286 Eh     25.70 kcal/mol

In case the symmetry of your molecule has not been determined correctly
or in case you have a reason to use a different symmetry number we print 
out the resulting rotational entropy values for sn=1,12:

 non-linear molecules -----------------------------------
|  sn= 1 | S(rot)=       0.01364497 Eh      8.56 kcal/mol|
|  sn= 2 | S(rot)=       0.01299051 Eh      8.15 kcal/mol|
|  sn= 3 | S(rot)=       0.01260768 Eh      7.91 kcal/mol|
|  sn= 4 | S(rot)=       0.01233605 Eh      7.74 kcal/mol|
|  sn= 5 | S(rot)=       0.01212537 Eh      7.61 kcal/mol|
|  sn= 6 | S(rot)=       0.01195322 Eh      7.50 kcal/mol|
|  sn= 7 | S(rot)=       0.01180767 Eh      7.41 kcal/mol|
|  sn= 8 | S(rot)=       0.01168160 Eh      7.33 kcal/mol|
|  sn= 9 | S(rot)=       0.01157039 Eh      7.26 kcal/mol|
|  sn=10 | S(rot)=       0.01147091 Eh      7.20 kcal/mol|
|  sn=11 | S(rot)=       0.01138092 Eh      7.14 kcal/mol|
|  sn=12 | S(rot)=       0.01129876 Eh      7.09 kcal/mol|
 linear molecules ---------------------------------------
|  Dinfh | S(rot)=       0.00854484 Eh      5.36 kcal/mol|
|  Cinfv | S(rot)=       0.00919930 Eh      5.77 kcal/mol|
 --------------------------------------------------------


-------------------
GIBBS FREE ENERGY
-------------------

The Gibbs free energy is G = H - T*S

Total enthalpy                    ...   -364.87855967 Eh 
Total entropy correction          ...     -0.04096286 Eh    -25.70 kcal/mol
-----------------------------------------------------------------------
Final Gibbs free energy         ...   -364.91952252 Eh

For completeness - the Gibbs free energy minus the electronic energy
G-E(el)                           ...      0.11962274 Eh     75.06 kcal/mol


Maximum memory used throughout the entire PROP-calculation: 112.4 MB

--------------------------------
SUGGESTED CITATIONS FOR THIS RUN
--------------------------------

Below you find a list of papers that are relevant to this ORCA run
We neither can nor want to force you to cite these papers, but we appreciate if you do
You receive ORCA, which is the product of decades of hard work by many enthusiastic individuals, for free
The only thing we kindly ask in return is that you cite our papers,
We deeply appreciate it, if you show your appreciation for ORCA by not just citing the generic ORCA reference.

Please note that relegating all ORCA citations to the supporting information does *not* help us.
SI sections are not indexed - citations you put there will not count into any citation statistics
But we need these citations in order to attract the funding resources that allow us to do what we are doing

Therefore, if you are a happy ORCA user, please consider citing a few of the papers listed below in the main body of your paper

In addition to the list printed below, the program has created the file B_N_S0-1.bibtex that contains the list in bibtex format
You can import this file easily into all common literature databanks and citation aid programs


List of essential papers. We consider these as the minimum necessary citations

  1. Neese,F.
     Software update: the ORCA program system, version 5.0
     WIRES Comput. Molec. Sci., 2022 12(1)e1606
     doi.org/10.1002/wcms.1606

List of papers to cite with high priority. The work reported in these papers was absolutely
necessary for this run to complete.
Our perspective: the developers of density functionals and basis sets usually get cited in chemistry papers
Good! But without the algorithms to do something with them, the functionals or basis sets would not do anything.
Hence, in our opinion, the algorithm design and method developments papers are equally worthy of getting cited

  1. Neese,F.
     An improvement of the resolution of the identity approximation for the formation of the Coulomb matrix
     J. Comp. Chem., 2003 24(14)1740-1747
     doi.org/10.1002/jcc.10318
  2. Neese,F.; Wennmohs,F.; Hansen,A.; Becker,U.
     Efficient, approximate and parallel Hartree-Fock and hybrid DFT calculations. A 'chain-of-spheres' algorithm for the Hartree-Fock exchange
     Chem. Phys., 2009 356(1-3)98-109
     doi.org/10.1016/j.chemphys.2008.10.036
  3. Bykov,D.; Petrenko,T.; Izsak,R.; Kossmann,S.; Becker,U.; Valeev,E.; Neese,F.
     Efficient implementation of the analytic second derivatives of Hartree-Fock and hybrid DFT energies: a detailed analysis of different approximations
     Molec. Phys., 2015 113 1961-1977
     doi.org/10.1080/00268976.2015.1025114
  4. Garcia-Rates,M.; Neese,F.
     Efficient implementation of the analytical second derivatives of hartree-fock and hybrid DFT energies within the framework of the conductor-like polarizable continuum model
     J. Comput. Chem., 2019 40 1816-1828
     doi.org/10.1002/jcc.25833
  5. Garcia-Rates,M.; Neese,F.
     Effect of the Solute Cavity on the Solvation Energy and its Derivatives within the Framework of the Gaussian Charge Scheme
     J. Comput. Chem., 2020 41 922-939
     doi.org/10.1002/jcc.26139
  6. Helmich-Paris,B.; de Souza,B.; Neese,F.; Izsák,R.
     An improved chain of spheres for exchange algorithm
     J. Chem. Phys., 2021 155 104109
     doi.org/doi: 10.1063/5.0058766.
  7. Neese,F.
     The SHARK Integral Generation and Digestion System
     J. Comp. Chem., 2022  1-16
     doi.org/10.1002/jcc.26942
  8. Grimme,S.; Antony,J.; Ehrlich,S.; Krieg,H.
     A consistent and accurate ab initio parametrization of density functional dispersion correction (DFT-D) for the 94 elements H-Pu
     J. Chem. Phys., 2010 132 154104
     doi.org/10.1063/1.3382344

List of suggested additional citations. These are papers that are important in the 'surrounding' of 
of this run, or papers that preceded the highly important papers. If you like your results we are grateful for a citation.

  1. Izsak,R.; Neese,F.
     An overlap fitted chain of spheres exchange method
     J. Chem. Phys., 2011 135 144105
     doi.org/10.1063/1.3646921
  2. Izsak,R.; Hansen,A.; Neese,F.
     The resolution of identity and chain of spheres approximations for the LPNO-CCSD singles Fock term
     Molec. Phys., 2012 110 2413-2417
     doi.org/10.1080/00268976.2012.687466
  3. Neese,F.
     The ORCA program system
     WIRES Comput. Molec. Sci., 2012 2(1)73-78
     doi.org/10.1002/wcms.81
  4. Izsak,R.; Neese,F.; Klopper,W.
     Robust fitting techniques in the chain of spheres approximation to the Fock exchange: The role of the complementary space
     J. Chem. Phys., 2013 139 
     doi.org/10.1063/1.4819264
  5. Neese,F.
     Software update: the ORCA program system, version 4.0
     WIRES Comput. Molec. Sci., 2018 8(1)1-6
     doi.org/10.1002/wcms.1327
  6. Neese,F.; Wennmohs,F.; Becker,U.; Riplinger,C.
     The ORCA quantum chemistry program package
     J. Chem. Phys., 2020 152 Art. No. L224108
     doi.org/10.1063/5.0004608

List of optional additional citations

  1. Neese,F.
     Approximate second-order SCF convergence for spin unrestricted wavefunctions
     Chem. Phys. Lett., 2000 325(1-3)93-98
     doi.org/10.1016/s0009-2614(00)00662-x

Timings for individual modules:

Sum of individual times          ...     1931.660 sec (=  32.194 min)
Startup calculation              ...       45.528 sec (=   0.759 min)   2.4 %
SCF iterations                   ...      733.124 sec (=  12.219 min)  38.0 %
Property integrals               ...      149.647 sec (=   2.494 min)   7.7 %
SCF Response                     ...      127.708 sec (=   2.128 min)   6.6 %
Property calculations            ...      445.078 sec (=   7.418 min)  23.0 %
SCF Gradient evaluation          ...      430.400 sec (=   7.173 min)  22.3 %
Geometry relaxation              ...        0.175 sec (=   0.003 min)   0.0 %
                             ****ORCA TERMINATED NORMALLY****
TOTAL RUN TIME: 0 days 0 hours 32 minutes 39 seconds 813 msec
