
                                 *****************
                                 * O   R   C   A *
                                 *****************

                                            #,                                       
                                            ###                                      
                                            ####                                     
                                            #####                                    
                                            ######                                   
                                           ########,                                 
                                     ,,################,,,,,                         
                               ,,#################################,,                 
                          ,,##########################################,,             
                       ,#########################################, ''#####,          
                    ,#############################################,,   '####,        
                  ,##################################################,,,,####,       
                ,###########''''           ''''###############################       
              ,#####''   ,,,,##########,,,,          '''####'''          '####       
            ,##' ,,,,###########################,,,                        '##       
           ' ,,###''''                  '''############,,,                           
         ,,##''                                '''############,,,,        ,,,,,,###''
      ,#''                                            '''#######################'''  
     '                                                          ''''####''''         
             ,#######,   #######,   ,#######,      ##                                
            ,#'     '#,  ##    ##  ,#'     '#,    #''#        ,####,   ,####,        
            ##       ##  ##   ,#'  ##            #'  '#       #'       #'  '#        
            ##       ##  #######   ##           ,######,      #####,   #    #        
            '#,     ,#'  ##    ##  '#,     ,#' ,#      #,     #,   #   #,  ,#        
             '#######'   ##     ##  '#######'  #'      '#     '####' # '####'        



                #########################################################
                #                        -***-                          #
                #          Department of theory and spectroscopy        #
                #                                                       #
                #                      Frank Neese                      #
                #                                                       #
                #     Directorship, Architecture, Infrastructure        #
                #                    SHARK, DRIVERS                     #
                #        Core code/Algorithms in most modules           #
                #                                                       #
                #        Max Planck Institute fuer Kohlenforschung      #
                #                Kaiser Wilhelm Platz 1                 #
                #                 D-45470 Muelheim/Ruhr                 #
                #                      Germany                          #
                #                                                       #
                #                  All rights reserved                  #
                #                        -***-                          #
                #########################################################


                         Program Version 6.0.0  -   RELEASE   -


 With contributions from (in alphabetic order):
   Daniel Aravena         : Magnetic Suceptibility
   Michael Atanasov       : Ab Initio Ligand Field Theory (pilot matlab implementation)
   Alexander A. Auer      : GIAO ZORA, VPT2 properties, NMR spectrum
   Ute Becker             : All parallelization in ORCA, NUMFREQ, NUMCALC
   Giovanni Bistoni       : ED, misc. LED, open-shell LED, HFLD
   Martin Brehm           : Molecular dynamics
   Dmytro Bykov           : pre 5.0 version of the SCF Hessian
   Marcos Casanova-Páez   : Triplet and SCS-CIS(D). UHF-(DLPNO)-IP/EA/STEOM-CCSD. UHF-CVS-IP/STEOM-CCSD
   Vijay G. Chilkuri      : MRCI spin determinant printing, contributions to CSF-ICE
   Pauline Colinet        : FMM embedding
   Dipayan Datta          : RHF DLPNO-CCSD density
   Achintya Kumar Dutta   : EOM-CC, STEOM-CC
   Nicolas Foglia         : Exact transition moments, OPA infrastructure, MCD improvements
   Dmitry Ganyushin       : Spin-Orbit,Spin-Spin,Magnetic field MRCI
   Miquel Garcia          : C-PCM and meta-GGA Hessian, CCSD/C-PCM, Gaussian charge scheme
   Tiago L. C. Gouveia    : GS-ROHF, GS-ROCIS
   Yang Guo               : DLPNO-NEVPT2, F12-NEVPT2, CIM, IAO-localization
   Andreas Hansen         : Spin unrestricted coupled pair/coupled cluster methods
   Ingolf Harden          : AUTO-CI MPn and infrastructure 
   Benjamin Helmich-Paris : MC-RPA, TRAH-(SCF,CASSCF), AVAS, COSX integrals, SCF dyn. polar.
   Lee Huntington         : MR-EOM, pCC
   Robert Izsak           : Overlap fitted RIJCOSX, COSX-SCS-MP3, EOM
   Riya Kayal             : Wick's Theorem for AUTO-CI, AUTO-CI UHF-CCSDT
   Emily Kempfer          : AUTO-CI, RHF CISDT and CCSDT
   Christian Kollmar      : KDIIS, OOCD, Brueckner-CCSD(T), CCSD density, CASPT2, CASPT2-K, improved NEVPT2
   Axel Koslowski         : Symmetry handling
   Simone Kossmann        : Meta GGA functionals, TD-DFT gradient, OOMP2, (MP2 Hessian; deprecated post 5.0)
   Lucas Lang             : DCDCAS
   Marvin Lechner         : AUTO-CI (C++ implementation), FIC-MRCC
   Spencer Leger          : CASSCF response
   Dagmar Lenk            : GEPOL surface, SMD, ORCA-2-JSON
   Dimitrios Liakos       : Extrapolation schemes; Compound Job, initial MDCI parallelization
   Dimitrios Manganas     : Further ROCIS development; embedding schemes. LFT, Crystal Embedding
   Dimitrios Pantazis     : SARC Basis sets
   Anastasios Papadopoulos: AUTO-CI, single reference methods and gradients
   Taras Petrenko         : pre 6.0 DFT Hessian and TD-DFT gradient, (ASA, deprecated), ECA, 1-Electron XAS/XES, NRVS
   Peter Pinski           : DLPNO-MP2, DLPNO-MP2 Gradient
   Christoph Reimann      : Effective Core Potentials
   Marius Retegan         : Local ZFS, SOC
   Christoph Riplinger    : Optimizer, TS searches, QM/MM, DLPNO-CCSD(T), (RO)-DLPNO pert. Triples
   Michael Roemelt        : Original ROCIS implementation
   Masaaki Saitow         : Open-shell DLPNO-CCSD energy and density
   Barbara Sandhoefer     : DKH picture change effects
   Kantharuban Sivalingam : CASSCF convergence/infrastructure, NEVPT2 and variants, FIC-MRCI
   Bernardo de Souza      : ESD, SOC TD-DFT
   Georgi Stoychev        : AutoAux, RI-MP2 NMR, DLPNO-MP2 response, X2C
   Van Anh Tran           : RI-MP2 g-tensors
   Willem Van den Heuvel  : Paramagnetic NMR
   Zikuan Wang            : NOTCH, Electric field optimization 
   Frank Wennmohs         : Technical directorship and infrastructure
   Hang Xu                : AUTO-CI-Response properties 


 We gratefully acknowledge several colleagues who have allowed us to
 interface, adapt or use parts of their codes:
   Stefan Grimme, W. Hujo, H. Kruse, P. Pracht,  : VdW corrections, initial TS optimization,
                  C. Bannwarth, S. Ehlert,         DFT functionals, gCP, sTDA/sTD-DF
                  L. Wittmann, M. Mueller
   Ed Valeev, F. Pavosevic, A. Kumar             : LibInt (2-el integral package), F12 methods
   Garnet Chan, S. Sharma, J. Yang, R. Olivares  : DMRG
   Ulf Ekstrom                                   : XCFun DFT Library
   Mihaly Kallay                                 : mrcc  (arbitrary order and MRCC methods)
   Frank Weinhold                                : gennbo (NPA and NBO analysis)
   Simon Mueller                                 : openCOSMO-RS
   Christopher J. Cramer and Donald G. Truhlar   : smd solvation model
   Lars Goerigk                                  : TD-DFT with DH, B97 family of functionals
   V. Asgeirsson, H. Jonsson                     : NEB implementation
   FAccTs GmbH                                   : IRC, NEB, NEB-TS, DLPNO-Multilevel, CI-OPT
                                                   MM, QMMM, 2- and 3-layer-ONIOM, Crystal-QMMM,
                                                   LR-CPCM, SF, NACMEs, symmetry and pop. for TD-DFT,
                                                   nearIR, NL-DFT gradient (VV10), updates on ESD,
                                                   ML-optimized integration grids, MBIS, APM,
                                                   GOAT, DOCKER, SOLVATOR, interface openCOSMO-RS
   S Lehtola, MJT Oliveira, MAL Marques          : LibXC Library
   Liviu Ungur et al                             : ANISO software


 Your calculation uses the libint2 library for the computation of 2-el integrals
 For citations please refer to: http://libint.valeyev.net

 Your ORCA version has been built with support for libXC version: 6.2.2
 For citations please refer to: https://libxc.gitlab.io

 This ORCA versions uses:
   CBLAS   interface :  Fast vector & matrix operations
   LAPACKE interface :  Fast linear algebra routines
   Shared memory     :  Shared parallel matrices


Warning: RI is on but no J-basis has been assigned. Assigning Def2/J (nothing to worry about!)
================================================================================

----- Orbital basis set information -----
Your calculation utilizes the basis: def2-SVP
   F. Weigend and R. Ahlrichs, Phys. Chem. Chem. Phys. 7, 3297 (2005).

----- AuxJ basis set information -----
Your calculation utilizes the auxiliary basis: def2/J
   F. Weigend, Phys. Chem. Chem. Phys. 8, 1057 (2006).

================================================================================
                                        WARNINGS
                       Please study these warnings very carefully!
================================================================================

WARNING: Old DensityContainer found on disk!
         Will remove this file - 
         If you want to keep old densities, please start your calculation with a different basename. 


WARNING: Geometry Optimization
  ===> : Switching off AutoStart
         For restart on a previous wavefunction, please use MOREAD

================================================================================
                                       INPUT FILE
================================================================================
NAME = CpCrNO.inp
|  1> %pal nprocs 20
|  2> end
|  3> !  OPT TPSS def2-SVP freq
|  4> ! TightSCF slowconv  DEFGRID3 
|  5> %geom
|  6> #Calc_Hess true 
|  7> maxiter 250
|  8> end 
|  9> 
| 10> * xyz 0 1
| 11> 24       0.025906000     -0.124355000      0.307968000
| 12> 6       -0.180254000     -0.154206000      2.502172000
| 13> 6        1.176752000      0.122562000      2.167312000
| 14> 6       -0.509077000     -1.451025000      1.984312000
| 15> 1       -0.855392000      0.510503000      3.043860000
| 16> 6        1.695985000     -0.998672000      1.438171000
| 17> 1        1.727337000      1.028896000      2.425126000
| 18> 6        0.645203000     -1.970924000      1.331223000
| 19> 1       -1.478575000     -1.946024000      2.063083000
| 20> 1        2.710758000     -1.101496000      1.051509000
| 21> 1        0.719448000     -2.942433000      0.839719000
| 22> 6        0.885403000      1.389158000     -0.340659000
| 23> 8        1.420094000      2.348840000     -0.720330000
| 24> 6        0.286448000     -1.020372000     -1.298039000
| 25> 8        0.435639000     -1.609006000     -2.289119000
| 26> 7       -1.524655000      0.416618000     -0.083174000
| 27> 8       -2.622790000      0.773767000     -0.302192000
| 28> *
| 29> 
| 30> 
| 31>                          ****END OF INPUT****
================================================================================

                       *****************************
                       * Geometry Optimization Run *
                       *****************************

Geometry optimization settings:
Update method            Update   .... BFGS
Choice of coordinates    CoordSys .... (2022) Redundant Internals
Initial Hessian          InHess   .... Almloef's Model
Max. no of cycles        MaxIter  .... 250

Convergence Tolerances:
Energy Change            TolE     ....  5.0000e-06 Eh
Max. Gradient            TolMAXG  ....  3.0000e-04 Eh/bohr
RMS Gradient             TolRMSG  ....  1.0000e-04 Eh/bohr
Max. Displacement        TolMAXD  ....  4.0000e-03 bohr
RMS Displacement         TolRMSD  ....  2.0000e-03 bohr
Strict Convergence                .... False

------------------------------------------------------------------------------
                        ORCA OPTIMIZATION COORDINATE SETUP
------------------------------------------------------------------------------

The optimization will be done in redundant internal coordinates (2022)
Making redundant internal coordinates   ...  (2022 redundants) done
Evaluating the initial hessian          ...  (Almloef) done
Evaluating the coordinates              ...  done
Calculating the B-matrix                .... done
Calculating the G-matrix                .... done
Diagonalizing the G-matrix              .... done
The first mode is                       ....  135
The number of degrees of freedom        ....   45

    -----------------------------------------------------------------
                    Redundant Internal Coordinates


    -----------------------------------------------------------------
         Definition                    Initial Value    Approx d2E/dq
    -----------------------------------------------------------------
      1. B(C   1,Cr  0)                  2.2041         0.317736   
      2. B(C   2,Cr  0)                  2.2006         0.321830   
      3. B(C   2,C   1)                  1.4248         0.549715   
      4. B(C   3,C   1)                  1.4346         0.530397   
      5. B(C   3,Cr  0)                  2.2037         0.318143   
      6. B(H   4,C   1)                  1.0914         0.358300   
      7. B(C   5,Cr  0)                  2.1979         0.324969   
      8. B(C   5,C   2)                  1.4347         0.530144   
      9. B(H   6,C   2)                  1.0914         0.358313   
     10. B(C   7,C   5)                  1.4356         0.528492   
     11. B(C   7,C   3)                  1.4245         0.550435   
     12. B(C   7,Cr  0)                  2.2001         0.322416   
     13. B(H   8,C   3)                  1.0914         0.358252   
     14. B(H   9,C   5)                  1.0908         0.359043   
     15. B(H  10,C   7)                  1.0913         0.358395   
     16. B(C  11,Cr  0)                  1.8575         1.135152   
     17. B(O  12,C  11)                  1.1623         1.291495   
     18. B(C  13,Cr  0)                  1.8574         1.135361   
     19. B(O  14,C  13)                  1.1623         1.291590   
     20. B(N  15,Cr  0)                  1.6882         1.893675   
     21. B(O  16,N  15)                  1.1753         1.102778   
     22. A(C   2,Cr  0,N  15)          129.8036         0.596894   
     23. A(C   2,Cr  0,C  13)          135.3438         0.544016   
     24. A(C   1,Cr  0,C   3)           37.9877         0.429184   
     25. A(C   5,Cr  0,C  13)           98.4029         0.545016   
     26. A(C   7,Cr  0,C  11)          135.7299         0.544184   
     27. A(C   1,Cr  0,N  15)           98.5741         0.595424   
     28. A(C   3,Cr  0,C   7)           37.7455         0.430312   
     29. A(C   5,Cr  0,C  11)           98.7483         0.544997   
     30. A(C  11,Cr  0,N  15)           94.7604         0.764579   
     31. A(C   5,Cr  0,N  15)          160.8246         0.598011   
     32. A(C  13,Cr  0,N  15)           94.7661         0.764607   
     33. A(C   2,Cr  0,C  11)           87.8010         0.543997   
     34. A(C   7,Cr  0,N  15)          129.4396         0.597103   
     35. A(C  11,Cr  0,C  13)           91.5031         0.694243   
     36. A(C   3,Cr  0,C  13)          113.6637         0.542831   
     37. A(C   2,Cr  0,C   3)           63.3704         0.430171   
     38. A(C   7,Cr  0,C  13)           87.5799         0.544203   
     39. A(C   1,Cr  0,C  11)          113.7004         0.542680   
     40. A(C   3,Cr  0,N  15)           98.4061         0.595571   
     41. A(C   1,Cr  0,C   7)           63.3812         0.430213   
     42. A(C   2,Cr  0,C   7)           63.5120         0.431203   
     43. A(C   1,Cr  0,C   2)           37.7478         0.430072   
     44. A(C   5,Cr  0,C   7)           38.1022         0.431956   
     45. A(C   1,Cr  0,C   5)           63.4984         0.430823   
     46. A(C   1,Cr  0,C  13)          150.1537         0.542699   
     47. A(C   3,Cr  0,C  11)          150.2851         0.542812   
     48. A(C   3,Cr  0,C   5)           63.5020         0.430921   
     49. A(C   2,Cr  0,C   5)           38.0743         0.431814   
     50. A(C   2,C   1,C   3)          108.0020         0.413139   
     51. A(Cr  0,C   1,C   3)           70.9930         0.419675   
     52. A(C   3,C   1,H   4)          126.0115         0.343459   
     53. A(C   2,C   1,H   4)          125.9801         0.345528   
     54. A(Cr  0,C   1,H   4)          122.9381         0.350700   
     55. A(Cr  0,C   1,C   2)           70.9935         0.422364   
     56. A(Cr  0,C   2,C   1)           71.2587         0.423331   
     57. A(C   1,C   2,C   5)          108.1985         0.413104   
     58. A(Cr  0,C   2,C   5)           70.8631         0.420599   
     59. A(C   5,C   2,H   6)          125.9082         0.343434   
     60. A(C   1,C   2,H   6)          125.8928         0.345530   
     61. A(Cr  0,C   2,H   6)          123.8225         0.351462   
     62. A(C   1,C   3,C   7)          108.0405         0.413235   
     63. A(Cr  0,C   3,C   7)           70.9890         0.422559   
     64. A(C   7,C   3,H   8)          125.9700         0.345596   
     65. A(C   1,C   3,H   8)          125.9830         0.343451   
     66. A(Cr  0,C   3,H   8)          122.9284         0.350768   
     67. A(Cr  0,C   3,C   1)           71.0193         0.419771   
     68. A(C   2,C   5,C   7)          107.5921         0.410229   
     69. A(Cr  0,C   5,C   7)           71.0299         0.421094   
     70. A(C   7,C   5,H   9)          126.2064         0.343371   
     71. A(C   2,C   5,H   9)          126.1924         0.343551   
     72. A(Cr  0,C   5,H   9)          124.2012         0.352161   
     73. A(Cr  0,C   5,C   2)           71.0626         0.421328   
     74. A(C   3,C   7,C   5)          108.1665         0.412971   
     75. A(Cr  0,C   7,C   5)           70.8679         0.420501   
     76. A(Cr  0,C   7,C   3)           71.2655         0.423568   
     77. A(C   5,C   7,H  10)          125.9215         0.343267   
     78. A(C   3,C   7,H  10)          125.9111         0.345619   
     79. A(Cr  0,C   7,H  10)          123.8394         0.351584   
     80. L(Cr  0,C  11,O  12,C   2, 2) 181.2061         0.624122   
     81. L(Cr  0,C  11,O  12,C   2, 1) 178.9119         0.624122   
     82. L(Cr  0,C  13,O  14,C   7, 2) 178.6306         0.624153   
     83. L(Cr  0,C  13,O  14,C   7, 1) 178.7071         0.624153   
     84. L(Cr  0,N  15,O  16,C   3, 1) 177.2057         0.660517   
     85. L(Cr  0,N  15,O  16,C   3, 2) 178.9102         0.660517   
     86. D(C   2,C   1,Cr  0,C   5)     37.5461         0.002064   
     87. D(C   3,C   1,Cr  0,C   7)    -37.3180         0.002064   
     88. D(C   2,C   1,Cr  0,N  15)   -149.6288         0.002064   
     89. D(C   3,C   1,Cr  0,C  13)    -22.8682         0.002064   
     90. D(C   2,C   1,Cr  0,C   7)     80.3516         0.002064   
     91. D(C   2,C   1,Cr  0,C   3)    117.6696         0.002064   
     92. D(H   4,C   1,Cr  0,C   2)    121.1466         0.002064   
     93. D(C   2,C   1,Cr  0,C  11)    -50.5471         0.002064   
     94. D(C   3,C   1,Cr  0,N  15)     92.7016         0.002064   
     95. D(C   3,C   1,Cr  0,C  11)   -168.2167         0.002064   
     96. D(C   3,C   1,Cr  0,C   5)    -80.1235         0.002064   
     97. D(C   2,C   1,Cr  0,C  13)     94.8014         0.002064   
     98. D(C   3,C   1,Cr  0,C   2)   -117.6696         0.002064   
     99. D(C   1,C   2,Cr  0,C   3)    -37.5743         0.002079   
    100. D(Cr  0,C   2,C   1,H   4)   -117.4250         0.024088   
    101. D(C   5,C   2,C   1,Cr  0)    -61.5788         0.024088   
    102. D(H   6,C   2,Cr  0,C   1)   -121.1906         0.002079   
    103. D(C   5,C   2,C   1,H   4)   -179.0038         0.024088   
    104. D(C   1,C   2,Cr  0,C   5)   -117.8280         0.002079   
    105. D(C   1,C   2,Cr  0,N  15)     40.5997         0.002079   
    106. D(C   5,C   2,Cr  0,C   1)    117.8280         0.002079   
    107. D(C   5,C   2,Cr  0,C   3)     80.2538         0.002079   
    108. D(C   5,C   2,Cr  0,C  13)    -17.2943         0.002079   
    109. D(C   5,C   2,Cr  0,C  11)   -107.2075         0.002079   
    110. D(C   5,C   2,Cr  0,N  15)    158.4277         0.002079   
    111. D(Cr  0,C   2,C   1,C   3)     61.6974         0.024088   
    112. D(C   1,C   2,Cr  0,C  13)   -135.1223         0.002079   
    113. D(C   5,C   2,C   1,C   3)      0.1186         0.024088   
    114. D(C   1,C   2,Cr  0,C  11)    134.9645         0.002079   
    115. D(H   6,C   2,C   1,Cr  0)    118.6869         0.024088   
    116. D(C   1,C   2,Cr  0,C   7)    -79.9744         0.002079   
    117. D(C   5,C   2,Cr  0,C   7)     37.8537         0.002079   
    118. D(H   8,C   3,C   1,Cr  0)   -117.4295         0.022358   
    119. D(C   7,C   3,C   1,H   4)    179.1096         0.022358   
    120. D(C   7,C   3,C   1,C   2)     -0.0125         0.022358   
    121. D(C   7,C   3,C   1,Cr  0)     61.6852         0.022358   
    122. D(C   7,C   3,Cr  0,N  15)    149.1077         0.002066   
    123. D(C   7,C   3,Cr  0,C   1)   -117.7034         0.002066   
    124. D(C   7,C   3,Cr  0,C   5)    -37.5903         0.002066   
    125. D(C   7,C   3,Cr  0,C   2)    -80.3655         0.002066   
    126. D(C   7,C   3,Cr  0,C  11)    -95.5412         0.002066   
    127. D(H   8,C   3,Cr  0,C   1)    121.1643         0.002066   
    128. D(C   1,C   3,Cr  0,N  15)    -93.1888         0.002066   
    129. D(Cr  0,C   3,C   1,C   2)    -61.6978         0.022358   
    130. D(C   1,C   3,Cr  0,C  13)    167.8098         0.002066   
    131. D(C   1,C   3,Cr  0,C  11)     22.1622         0.002066   
    132. D(Cr  0,C   3,C   1,H   4)    117.4244         0.022358   
    133. D(C   1,C   3,Cr  0,C   5)     80.1131         0.002066   
    134. D(C   1,C   3,Cr  0,C   2)     37.3379         0.002066   
    135. D(C   1,C   3,Cr  0,C   7)    117.7034         0.002066   
    136. D(C   7,C   3,Cr  0,C  13)     50.1064         0.002066   
    137. D(C   7,C   5,Cr  0,C  13)    -75.0752         0.002090   
    138. D(C   7,C   5,Cr  0,C  11)   -167.9159         0.002090   
    139. D(C   7,C   5,Cr  0,C   3)     37.2401         0.002090   
    140. D(C   7,C   5,Cr  0,C   2)    117.1181         0.002090   
    141. D(C   7,C   5,Cr  0,C   1)     79.8923         0.002090   
    142. D(C   2,C   5,Cr  0,N  15)    -59.3121         0.002090   
    143. D(C   2,C   5,Cr  0,C  13)    167.8067         0.002090   
    144. D(C   2,C   5,Cr  0,C  11)     74.9660         0.002090   
    145. D(C   2,C   5,Cr  0,C   7)   -117.1181         0.002090   
    146. D(C   2,C   5,Cr  0,C   3)    -79.8780         0.002090   
    147. D(C   7,C   5,Cr  0,N  15)     57.8060         0.002090   
    148. D(C   2,C   5,Cr  0,C   1)    -37.2257         0.002090   
    149. D(H   9,C   5,C   2,Cr  0)    119.0327         0.022335   
    150. D(C   7,C   5,C   2,H   6)    179.5557         0.022335   
    151. D(C   7,C   5,C   2,C   1)     -0.1785         0.022335   
    152. D(C   7,C   5,C   2,Cr  0)    -62.0095         0.022335   
    153. D(Cr  0,C   5,C   2,H   6)   -118.4348         0.022335   
    154. D(Cr  0,C   5,C   2,C   1)     61.8309         0.022335   
    155. D(H   9,C   5,Cr  0,C   1)   -158.6678         0.002090   
    156. D(C   3,C   7,C   5,H   9)    179.1284         0.022191   
    157. D(C   3,C   7,C   5,C   2)      0.1707         0.022191   
    158. D(C   3,C   7,C   5,Cr  0)    -61.8599         0.022191   
    159. D(Cr  0,C   7,C   5,C   2)     62.0306         0.022191   
    160. D(H  10,C   7,C   3,Cr  0)   -118.7123         0.024154   
    161. D(C   5,C   7,C   3,H   8)    179.0165         0.024154   
    162. D(C   5,C   7,C   3,Cr  0)     61.6063         0.024154   
    163. D(Cr  0,C   7,C   3,H   8)    117.4103         0.024154   
    164. D(Cr  0,C   7,C   3,C   1)    -61.7046         0.024154   
    165. D(H  10,C   7,Cr  0,C   1)    158.7731         0.002081   
    166. D(C   5,C   7,Cr  0,N  15)   -158.9050         0.002081   
    167. D(C   5,C   7,Cr  0,C  13)    106.9135         0.002081   
    168. D(C   5,C   7,Cr  0,C  11)     17.2425         0.002081   
    169. D(C   5,C   7,Cr  0,C   3)   -117.7831         0.002081   
    170. D(C   5,C   7,Cr  0,C   2)    -37.8260         0.002081   
    171. D(C   5,C   7,C   3,C   1)     -0.0983         0.024154   
    172. D(C   5,C   7,Cr  0,C   1)    -80.2267         0.002081   
    173. D(C   3,C   7,Cr  0,N  15)    -41.1219         0.002081   
    174. D(C   3,C   7,Cr  0,C  13)   -135.3034         0.002081   
    175. D(Cr  0,C   7,C   5,H   9)   -119.0117         0.022191   
    176. D(C   3,C   7,Cr  0,C  11)    135.0256         0.002081   
    177. D(C   3,C   7,Cr  0,C   5)    117.7831         0.002081   
    178. D(C   3,C   7,Cr  0,C   2)     79.9571         0.002081   
    179. D(H  10,C   7,C   5,Cr  0)    118.4587         0.022191   
    180. D(C   3,C   7,Cr  0,C   1)     37.5565         0.002081   
    -----------------------------------------------------------------

Number of atoms                         .... 17
Number of degrees of freedom            .... 180


         *************************************************************
         *                GEOMETRY OPTIMIZATION CYCLE   1            *
         *************************************************************
---------------------------------
CARTESIAN COORDINATES (ANGSTROEM)
---------------------------------
  Cr     0.025906   -0.124355    0.307968
  C     -0.180254   -0.154206    2.502172
  C      1.176752    0.122562    2.167312
  C     -0.509077   -1.451025    1.984312
  H     -0.855392    0.510503    3.043860
  C      1.695985   -0.998672    1.438171
  H      1.727337    1.028896    2.425126
  C      0.645203   -1.970924    1.331223
  H     -1.478575   -1.946024    2.063083
  H      2.710758   -1.101496    1.051509
  H      0.719448   -2.942433    0.839719
  C      0.885403    1.389158   -0.340659
  O      1.420094    2.348840   -0.720330
  C      0.286448   -1.020372   -1.298039
  O      0.435639   -1.609006   -2.289119
  N     -1.524655    0.416618   -0.083174
  O     -2.622790    0.773767   -0.302192

----------------------------
CARTESIAN COORDINATES (A.U.)
----------------------------
  NO LB      ZA    FRAG     MASS         X           Y           Z
   0 Cr   24.0000    0    52.000    0.048955   -0.234997    0.581975
   1 C     6.0000    0    12.011   -0.340631   -0.291407    4.728420
   2 C     6.0000    0    12.011    2.223739    0.231609    4.095626
   3 C     6.0000    0    12.011   -0.962016   -2.742040    3.749806
   4 H     1.0000    0     1.008   -1.616457    0.964711    5.752062
   5 C     6.0000    0    12.011    3.204947   -1.887217    2.717749
   6 H     1.0000    0     1.008    3.264194    1.944332    4.582824
   7 C     6.0000    0    12.011    1.219257   -3.724507    2.515647
   8 H     1.0000    0     1.008   -2.794102   -3.677452    3.898662
   9 H     1.0000    0     1.008    5.122590   -2.081526    1.987064
  10 H     1.0000    0     1.008    1.359560   -5.560393    1.586839
  11 C     6.0000    0    12.011    1.673169    2.625128   -0.643752
  12 O     8.0000    0    15.999    2.683589    4.438664   -1.361226
  13 C     6.0000    0    12.011    0.541308   -1.928224   -2.452938
  14 O     8.0000    0    15.999    0.823238   -3.040581   -4.325808
  15 N     7.0000    0    14.007   -2.881180    0.787294   -0.157176
  16 O     8.0000    0    15.999   -4.956355    1.462208   -0.571060

--------------------------------
INTERNAL COORDINATES (ANGSTROEM)
--------------------------------
 Cr     0   0   0     0.000000000000     0.00000000     0.00000000
 C      1   0   0     2.204069922080     0.00000000     0.00000000
 C      2   1   0     1.424849826985    70.99350250     0.00000000
 C      2   1   3     1.434588116391    70.99301521   242.33038450
 H      2   1   3     1.091363946202   122.93811692   121.14659328
 C      3   2   1     1.434717808116   108.19845947   298.42119530
 H      3   2   1     1.091353847465   125.89280398   118.68692759
 C      4   2   1     1.424493780443   108.04052260    61.68521987
 H      4   2   1     1.091400592104   125.98297457   242.57052716
 H      6   3   2     1.090799944421   126.19240040   180.86362373
 H      8   4   2     1.091292004517   125.91107675   179.58314443
 C      1   2   3     1.857464314410   113.70041396   309.45291590
 O     12   1   2     1.162339913642   178.55818593   346.85162662
 C      1   2   3     1.857414084716   150.15367652    94.80138990
 O     14   1   2     1.162319881460   178.31700463    27.33098345
 N      1   2   3     1.688159727518    98.57408395   210.37118486
 O     16   1   2     1.175340278707   177.08820154   338.27128259

---------------------------
INTERNAL COORDINATES (A.U.)
---------------------------
 Cr     0   0   0     0.000000000000     0.00000000     0.00000000
 C      1   0   0     4.165088532744     0.00000000     0.00000000
 C      2   1   0     2.692575954967    70.99350250     0.00000000
 C      2   1   3     2.710978654957    70.99301521   242.33038450
 H      2   1   3     2.062378970757   122.93811692   121.14659328
 C      3   2   1     2.711223736800   108.19845947   298.42119530
 H      3   2   1     2.062359886910   125.89280398   118.68692759
 C      4   2   1     2.691903124512   108.04052260    61.68521987
 H      4   2   1     2.062448221477   125.98297457   242.57052716
 H      6   3   2     2.061313161852   126.19240040   180.86362373
 H      8   4   2     2.062243020674   125.91107675   179.58314443
 C      1   2   3     3.510098857767   113.70041396   309.45291590
 O     12   1   2     2.196504111310   178.55818593   346.85162662
 C      1   2   3     3.510003937402   150.15367652    94.80138990
 O     14   1   2     2.196466255971   178.31700463    27.33098345
 N      1   2   3     3.190159555324    98.57408395   210.37118486
 O     16   1   2     2.221071240922   177.08820154   338.27128259

---------------------
BASIS SET INFORMATION
---------------------
There are 5 groups of distinct atoms

 Group   1 Type Cr  : 14s9p5d1f contracted to 5s3p2d1f pattern {63311/531/41/1}
 Group   2 Type C   : 7s4p1d contracted to 3s2p1d pattern {511/31/1}
 Group   3 Type H   : 4s1p contracted to 2s1p pattern {31/1}
 Group   4 Type O   : 7s4p1d contracted to 3s2p1d pattern {511/31/1}
 Group   5 Type N   : 7s4p1d contracted to 3s2p1d pattern {511/31/1}

Atom   0Cr   basis set group =>   1
Atom   1C    basis set group =>   2
Atom   2C    basis set group =>   2
Atom   3C    basis set group =>   2
Atom   4H    basis set group =>   3
Atom   5C    basis set group =>   2
Atom   6H    basis set group =>   3
Atom   7C    basis set group =>   2
Atom   8H    basis set group =>   3
Atom   9H    basis set group =>   3
Atom  10H    basis set group =>   3
Atom  11C    basis set group =>   2
Atom  12O    basis set group =>   4
Atom  13C    basis set group =>   2
Atom  14O    basis set group =>   4
Atom  15N    basis set group =>   5
Atom  16O    basis set group =>   4
---------------------------------
AUXILIARY/J BASIS SET INFORMATION
---------------------------------
There are 5 groups of distinct atoms

 Group   1 Type Cr  : 19s5p5d3f3g contracted to 8s5p5d2f3g pattern {121111111/11111/11111/21/111}
 Group   2 Type C   : 12s5p4d2f1g contracted to 6s4p3d1f1g pattern {711111/2111/211/2/1}
 Group   3 Type H   : 5s2p1d contracted to 3s1p1d pattern {311/2/1}
 Group   4 Type O   : 12s5p4d2f1g contracted to 6s4p3d1f1g pattern {711111/2111/211/2/1}
 Group   5 Type N   : 12s5p4d2f1g contracted to 6s4p3d1f1g pattern {711111/2111/211/2/1}

Atom   0Cr   basis set group =>   1
Atom   1C    basis set group =>   2
Atom   2C    basis set group =>   2
Atom   3C    basis set group =>   2
Atom   4H    basis set group =>   3
Atom   5C    basis set group =>   2
Atom   6H    basis set group =>   3
Atom   7C    basis set group =>   2
Atom   8H    basis set group =>   3
Atom   9H    basis set group =>   3
Atom  10H    basis set group =>   3
Atom  11C    basis set group =>   2
Atom  12O    basis set group =>   4
Atom  13C    basis set group =>   2
Atom  14O    basis set group =>   4
Atom  15N    basis set group =>   5
Atom  16O    basis set group =>   4


           ************************************************************
           *        Program running with 20 parallel MPI-processes    *
           *              working on a common directory               *
           ************************************************************
------------------------------------------------------------------------------
                             ORCA STARTUP CALCULATIONS
                           -- RI-GTO INTEGRALS CHOSEN --
------------------------------------------------------------------------------
------------------------------------------------------------------------------
                   ___                                                        
                  /   \      - P O W E R E D   B Y -                         
                 /     \                                                     
                 |  |  |   _    _      __       _____    __    __             
                 |  |  |  | |  | |    /  \     |  _  \  |  |  /  |          
                  \  \/   | |  | |   /    \    | | | |  |  | /  /          
                 / \  \   | |__| |  /  /\  \   | |_| |  |  |/  /          
                |  |  |   |  __  | /  /__\  \  |    /   |      \           
                |  |  |   | |  | | |   __   |  |    \   |  |\   \          
                \     /   | |  | | |  |  |  |  | |\  \  |  | \   \       
                 \___/    |_|  |_| |__|  |__|  |_| \__\ |__|  \__/        
                                                                              
                      - O R C A' S   B I G   F R I E N D -                    
                                      &                                       
                       - I N T E G R A L  F E E D E R -                       
                                                                              
 v1 FN, 2020, v2 2021, v3 2022-2024                                           
------------------------------------------------------------------------------


----------------------
SHARK INTEGRAL PACKAGE
----------------------

Number of atoms                             ...     17
Number of basis functions                   ...    210
Number of shells                            ...     92
Maximum angular momentum                    ...      3
Integral batch strategy                     ... SHARK/LIBINT Hybrid
RI-J (if used) integral strategy            ... SPLIT-RIJ (Revised 2003 algorithm where possible)
Printlevel                                  ...      1
Contraction scheme used                     ... SEGMENTED contraction
Prescreening option                         ... SCHWARTZ
   Thresh                                   ... 2.500e-11
   Tcut                                     ... 2.500e-12
   Tpresel                                  ... 2.500e-12 
Coulomb Range Separation                    ... NOT USED
Exchange Range Separation                   ... NOT USED
Multipole approximations                    ... NOT USED
Finite Nucleus Model                        ... NOT USED
CABS basis                                  ... NOT available
Auxiliary Coulomb fitting basis             ... AVAILABLE
   # of basis functions in Aux-J            ...    683
   # of shells in Aux-J                     ...    213
   Maximum angular momentum in Aux-J        ...      4
Auxiliary J/K fitting basis                 ... NOT available
Auxiliary Correlation fitting basis         ... NOT available
Auxiliary 'external' fitting basis          ... NOT available

Checking pre-screening integrals            ... done (  0.0 sec) Dimension = 92
Check shell pair data                       ... done (  0.0 sec)
Shell pair information
Shell pair cut-off parameter TPreSel        ...   2.5e-12
Total number of shell pairs                 ...      4278
Shell pairs after pre-screening             ...      3888
Total number of primitive shell pairs       ...     17589
Primitive shell pairs kept                  ...     11064
          la=0 lb=0:   1045 shell pairs
          la=1 lb=0:   1332 shell pairs
          la=1 lb=1:    445 shell pairs
          la=2 lb=0:    537 shell pairs
          la=2 lb=1:    358 shell pairs
          la=2 lb=2:     81 shell pairs
          la=3 lb=0:     46 shell pairs
          la=3 lb=1:     30 shell pairs
          la=3 lb=2:     13 shell pairs
          la=3 lb=3:      1 shell pairs

Calculating one electron integrals          ... done (  0.0 sec)
Calculating RI/J V-Matrix + Cholesky decomp.... done (  0.1 sec)
Calculating Nuclear repulsion               ... done (  0.0 sec) ENN=    946.615691475332 Eh

Diagonalization of the overlap matrix:
Smallest eigenvalue                        ... 5.994e-04
Time for diagonalization                   ...    0.008 sec
Threshold for overlap eigenvalues          ... 1.000e-07
Number of eigenvalues below threshold      ... 0
Time for construction of square roots      ...    0.006 sec
Total time needed                          ...    0.019 sec

-------------------
DFT GRID GENERATION
-------------------

General Integration Accuracy     IntAcc      ... 4.959
Radial Grid Type                 RadialGrid  ... OptM3 with GC (2021)
Angular Grid (max. ang.)         AngularGrid ... 6 (Lebedev-590)
Angular grid pruning method      GridPruning ... 4 (adaptive)
Weight generation scheme         WeightScheme... mBecke (2022)
Basis function cutoff            BFCut       ... 1.0000e-11
Integration weight cutoff        WCut        ... 1.0000e-14
Partially contracted basis set               ... off
Rotationally invariant grid construction     ... off
Angular grids for H and He will be reduced by one unit
Core-polarized basis detected: some atoms will have their core
                               angular grid increased.

Total number of grid points                  ...   227565
Total number of batches                      ...     3562
Average number of points per batch           ...       63
Average number of grid points per atom       ...    13386
Initializing property integral containers    ... done (  0.0 sec)

SHARK setup successfully completed in   2.8 seconds

Maximum memory used throughout the entire STARTUP-calculation: 50.2 MB


           ************************************************************
           *        Program running with 20 parallel MPI-processes    *
           *              working on a common directory               *
           ************************************************************
-------------------------------------------------------------------------------
                                 ORCA GUESS
                   Start orbitals & Density for SCF / CASSCF
-------------------------------------------------------------------------------

------------
SCF SETTINGS
------------
Hamiltonian:
 Density Functional     Method          .... DFT(GTOs)
 Exchange Functional    Exchange        .... TPSS
 Correlation Functional Correlation     .... TPSS
 LDA part of GGA corr.  LDAOpt          .... PW91-LDA
 Gradients option       PostSCFGGA      .... off
   NL short-range parameter             ....  5.000000
 RI-approximation to the Coulomb term is turned on
   Number of AuxJ basis functions       .... 683


General Settings:
 Integral files         IntName         .... CpCrNO
 Hartree-Fock type      HFTyp           .... RHF
 Total Charge           Charge          ....    0
 Multiplicity           Mult            ....    1
 Number of Electrons    NEL             ....  102
 Basis Dimension        Dim             ....  210
 Nuclear Repulsion      ENuc            ....    946.6156914753 Eh

Convergence Acceleration:
 AO-DIIS                CNVDIIS         .... on
   Start iteration      DIISMaxIt       ....     0
   Startup error        DIISStart       ....  0.200000
   # of expansion vecs  DIISMaxEq       ....     5
   Bias factor          DIISBfac        ....   1.050
   Max. coefficient     DIISMaxC        ....  10.000
 MO-DIIS                CNVKDIIS        .... off
 Trust-Rad. Augm. Hess. CNVTRAH         .... auto
   Auto Start mean grad. ratio tolernc. ....  1.125000
   Auto Start start iteration           ....    50
   Auto Start num. interpolation iter.  ....    10
   Max. Number of Micro iterations      ....    24
   Max. Number of Macro iterations      .... Maxiter - #DIIS iter
   Number of Davidson start vectors     ....     2
   Converg. threshold    (grad. norm)   ....   1.000e-05
   Grad. Scal. Fac. for Micro threshold ....   0.100
   Minimum threshold for Micro iter.    ....   1.000e-02
   NR start threshold (gradient norm)   ....   1.000e-04
   Initial trust radius                 ....   0.400
   Minimum AH scaling param. (alpha)    ....   1.000
   Maximum AH scaling param. (alpha)    .... 1000.000
   Quad. conv. algorithm                .... NR
   White noise on init. David. guess    .... on
   Maximum white noise                  ....   0.010
   Pseudo random numbers                .... off
   Inactive MOs                         .... canonical
   Orbital update algorithm             .... Taylor
   Preconditioner                       .... Diag
   Full preconditioner red. dimension   ....   250
 SOSCF                  CNVSOSCF        .... on
   Start iteration      SOSCFMaxIt      ....   150
   Startup grad/error   SOSCFStart      ....  0.001000
   Hessian update       SOSCFHessUp     .... L-BFGS
 Level Shifting         CNVShift        .... on
   Level shift para.    LevelShift      ....    0.2500
   Turn off err/grad.   ShiftErr        ....    0.0000
 Zerner damping         CNVZerner       .... off
 Static damping         CNVDamp         .... on
   Fraction old density DampFac         ....    0.8500
   Max. Damping (<1)    DampMax         ....    0.9800
   Min. Damping (>=0)   DampMin         ....    0.0000
   Turn off err/grad.   DampErr         ....    0.0300

SCF Procedure:
 Maximum # iterations   MaxIter         ....   125
 SCF integral mode      SCFMode         .... Direct
   Integral package                     .... SHARK and LIBINT hybrid scheme
 Reset frequency        DirectResetFreq ....    20
 Integral Threshold     Thresh          ....  2.500e-11 Eh
 Primitive CutOff       TCut            ....  2.500e-12 Eh

Convergence Tolerance:
 Convergence Check Mode ConvCheckMode   .... Total+1el-Energy
 Convergence forced     ConvForced      .... 0
 Energy Change          TolE            ....  1.000e-08 Eh
 1-El. energy change                    ....  1.000e-05 Eh
 Orbital Gradient       TolG            ....  1.000e-05
 Orbital Rotation angle TolX            ....  1.000e-05
 DIIS Error             TolErr          ....  5.000e-07

------------------------------
INITIAL GUESS: MODEL POTENTIAL
------------------------------
Loading Hartree-Fock densities                     ... done
Calculating cut-offs                               ... done
Initializing the effective Hamiltonian             ... done
Setting up the integral package (SHARK)            ... done
Starting the Coulomb interaction                   ... done (   0.0 sec)
Making the grid                                    ... done (   0.2 sec)
Mapping shells                                     ... done
Starting the XC term evaluation                    ... done (   0.0 sec)
  promolecular density results
     # of electrons  =    101.996025017
     EX              =   -115.550309558
     EC              =     -3.666388423
     EX+EC           =   -119.216697981
Transforming the Hamiltonian                       ... done (   0.0 sec)
Diagonalizing the Hamiltonian                      ... done (   0.0 sec)
Back transforming the eigenvectors                 ... done (   0.0 sec)
Now organizing SCF variables                       ... done
                      ------------------
                      INITIAL GUESS DONE (   0.3 sec)
                      ------------------
             **** ENERGY FILE WAS UPDATED (CpCrNO.en.tmp) ****
Finished Guess after   0.5 sec
Maximum memory used throughout the entire GUESS-calculation: 14.2 MB


           ************************************************************
           *        Program running with 20 parallel MPI-processes    *
           *              working on a common directory               *
           ************************************************************

-------------------------------------------------------------------------------------------
                                      ORCA LEAN-SCF
                              memory conserving SCF solver
-------------------------------------------------------------------------------------------

----------------------------------------D-I-I-S--------------------------------------------
Iteration    Energy (Eh)           Delta-E    RMSDP     MaxDP     DIISErr   Damp  Time(sec)
-------------------------------------------------------------------------------------------
               ***  Starting incremental Fock matrix formation  ***
    1    -1594.1773504339050760     0.00e+00  1.42e-03  3.40e-02  1.26e-01  0.850   1.2
Warning: op=0 Small HOMO/LUMO gap (   0.088) - skipping pre-diagonalization
         Will do a full diagonalization
    2    -1594.2253532789693509    -4.80e-02  1.46e-03  3.78e-02  8.68e-02  0.850   1.1
                               ***Turning on AO-DIIS***
    3    -1594.2536191473730014    -2.83e-02  9.11e-04  2.60e-02  5.50e-02  0.850   1.1
    4    -1594.2712403260686642    -1.76e-02  6.57e-04  1.56e-02  4.28e-02  0.850   1.0
    5    -1594.2838725539347706    -1.26e-02  4.92e-04  1.17e-02  3.66e-02  0.850   1.0
    6    -1594.2938002429148128    -9.93e-03  3.76e-04  9.08e-03  3.10e-02  0.850   1.0
    7    -1594.3020550512021600    -8.25e-03  2.98e-04  7.29e-03  2.54e-02  0.850   1.0
    8    -1594.3090298147301382    -6.97e-03  1.68e-03  4.22e-02  2.05e-02  0.000   1.0
    9    -1594.3443641366231986    -3.53e-02  3.38e-04  7.69e-03  4.51e-03  0.000   1.0
   10    -1594.3445133171123871    -1.49e-04  1.20e-04  4.42e-03  7.04e-03  0.000   1.0
   11    -1594.3446492494165341    -1.36e-04  5.96e-05  1.44e-03  1.04e-03  0.000   1.0
                              *** Initializing SOSCF ***
---------------------------------------S-O-S-C-F--------------------------------------
Iteration    Energy (Eh)           Delta-E    RMSDP     MaxDP     MaxGrad    Time(sec)
--------------------------------------------------------------------------------------
   12    -1594.3446652027312211    -1.60e-05  2.63e-05  7.98e-04  9.32e-04     1.0
               *** Restarting incremental Fock matrix formation ***
   13    -1594.3446676134815334    -2.41e-06  1.28e-04  5.40e-03  6.29e-04     1.0
   14    -1594.3444280829360196     2.40e-04  1.13e-04  4.96e-03  6.43e-03     0.9
   15    -1594.3446686580907681    -2.41e-04  5.54e-05  1.31e-03  2.08e-04     0.8
   16    -1594.3446525051006120     1.62e-05  4.39e-05  1.04e-03  1.02e-03     0.9
   17    -1594.3446695724994697    -1.71e-05  1.63e-05  2.91e-04  6.72e-05     0.9
   18    -1594.3446687949237912     7.78e-07  1.11e-05  2.35e-04  1.49e-04     0.9
   19    -1594.3446696896583035    -8.95e-07  3.45e-06  6.52e-05  1.81e-05     0.9
   20    -1594.3446696479384173     4.17e-08  2.46e-06  4.96e-05  4.47e-05     0.8
   21    -1594.3446697012952882    -5.34e-08  5.56e-07  1.73e-05  3.33e-06     0.9
   22    -1594.3446696871858421     1.41e-08  3.40e-07  1.18e-05  9.93e-06     0.9
   23    -1594.3446697046458667    -1.75e-08  3.59e-07  1.01e-05  2.44e-06     0.9
                  *** Gradient check signals convergence ***

               *****************************************************
               *                     SUCCESS                       *
               *           SCF CONVERGED AFTER  23 CYCLES          *
               *****************************************************

             **** ENERGY FILE WAS UPDATED (CpCrNO.en.tmp) ****

----------------
TOTAL SCF ENERGY
----------------

Total Energy       :      -1594.34466970464587 Eh          -43384.32408 eV

Components:
Nuclear Repulsion  :        946.61569147533214 Eh           25758.72251 eV
Electronic Energy  :      -2540.96036117997846 Eh          -69143.04659 eV
One Electron Energy:      -4066.65006392329724 Eh         -110659.17404 eV
Two Electron Energy:       1525.68970274331900 Eh           41516.12745 eV

Virial components:
Potential Energy   :      -3181.14784765125114 Eh          -86563.43373 eV
Kinetic Energy     :       1586.80317794660550 Eh           43179.10966 eV
Virial Ratio       :          2.00475263212404

DFT components:
N(Alpha)           :       50.999993652822 electrons
N(Beta)            :       50.999993652822 electrons
N(Total)           :      101.999987305644 electrons
E(X)               :     -117.265541584807 Eh       
E(C)               :       -3.719985582700 Eh       
E(XC)              :     -120.985527167507 Eh       

---------------
SCF CONVERGENCE
---------------

  Last Energy change         ...    1.7460e-08  Tolerance :   1.0000e-08
  Last MAX-Density change    ...    1.0110e-05  Tolerance :   1.0000e-07
  Last RMS-Density change    ...    3.5873e-07  Tolerance :   5.0000e-09
  Last DIIS Error            ...    9.3154e-04  Tolerance :   5.0000e-07
  Last Orbital Gradient      ...    2.4362e-06  Tolerance :   1.0000e-05
  Last Orbital Rotation      ...    3.4347e-06  Tolerance :   1.0000e-05


----------------
ORBITAL ENERGIES
----------------

  NO   OCC          E(Eh)            E(eV) 
   0   2.0000    -215.012072     -5850.7759 
   1   2.0000     -24.428940      -664.7453 
   2   2.0000     -20.747839      -564.5774 
   3   2.0000     -20.743495      -564.4592 
   4   2.0000     -20.740326      -564.3730 
   5   2.0000     -18.969438      -516.1846 
   6   2.0000     -18.953833      -515.7600 
   7   2.0000     -18.953766      -515.7582 
   8   2.0000     -14.234664      -387.3449 
   9   2.0000     -10.092359      -274.6270 
  10   2.0000     -10.092288      -274.6251 
  11   2.0000     -10.041659      -273.2474 
  12   2.0000     -10.041616      -273.2463 
  13   2.0000     -10.039143      -273.1790 
  14   2.0000     -10.038906      -273.1725 
  15   2.0000     -10.035672      -273.0845 
  16   2.0000      -2.777010       -75.5663 
  17   2.0000      -1.762810       -47.9685 
  18   2.0000      -1.748096       -47.5681 
  19   2.0000      -1.739023       -47.3212 
  20   2.0000      -1.102322       -29.9957 
  21   2.0000      -1.025593       -27.9078 
  22   2.0000      -1.025107       -27.8946 
  23   2.0000      -0.839524       -22.8446 
  24   2.0000      -0.676697       -18.4139 
  25   2.0000      -0.673976       -18.3398 
  26   2.0000      -0.612118       -16.6566 
  27   2.0000      -0.519973       -14.1492 
  28   2.0000      -0.519766       -14.1436 
  29   2.0000      -0.508492       -13.8368 
  30   2.0000      -0.499478       -13.5915 
  31   2.0000      -0.485088       -13.1999 
  32   2.0000      -0.451950       -12.2982 
  33   2.0000      -0.434509       -11.8236 
  34   2.0000      -0.432355       -11.7650 
  35   2.0000      -0.407558       -11.0902 
  36   2.0000      -0.399007       -10.8575 
  37   2.0000      -0.393513       -10.7080 
  38   2.0000      -0.391352       -10.6492 
  39   2.0000      -0.389479       -10.5983 
  40   2.0000      -0.384360       -10.4590 
  41   2.0000      -0.383613       -10.4386 
  42   2.0000      -0.367648       -10.0042 
  43   2.0000      -0.366647        -9.9770 
  44   2.0000      -0.360786        -9.8175 
  45   2.0000      -0.356784        -9.7086 
  46   2.0000      -0.264300        -7.1920 
  47   2.0000      -0.261005        -7.1023 
  48   2.0000      -0.215582        -5.8663 
  49   2.0000      -0.205867        -5.6019 
  50   2.0000      -0.190563        -5.1855 
  51   0.0000      -0.087828        -2.3899 
  52   0.0000      -0.072592        -1.9753 
  53   0.0000      -0.045018        -1.2250 
  54   0.0000      -0.044868        -1.2209 
  55   0.0000      -0.029080        -0.7913 
  56   0.0000      -0.022543        -0.6134 
  57   0.0000      -0.020425        -0.5558 
  58   0.0000      -0.017954        -0.4885 
  59   0.0000       0.006130         0.1668 
  60   0.0000       0.010151         0.2762 
  61   0.0000       0.013825         0.3762 
*Only the first 10 virtual orbitals were printed.

                    ********************************
                    * MULLIKEN POPULATION ANALYSIS *
                    ********************************

-----------------------
MULLIKEN ATOMIC CHARGES
-----------------------
   0 Cr:   -0.273479
   1 C :    0.047708
   2 C :    0.043559
   3 C :    0.048211
   4 H :    0.033675
   5 C :    0.043835
   6 H :    0.036582
   7 C :    0.043011
   8 H :    0.033709
   9 H :    0.030299
  10 H :    0.036631
  11 C :    0.093958
  12 O :   -0.078075
  13 C :    0.094296
  14 O :   -0.078204
  15 N :    0.004621
  16 O :   -0.160337
Sum of atomic charges:   -0.0000000

--------------------------------
MULLIKEN REDUCED ORBITAL CHARGES
--------------------------------
  0 Crs       :     6.263267  s :     6.263267
      pz      :     4.423797  p :    12.974593
      px      :     4.234799
      py      :     4.315997
      dz2     :     0.969091  d :     5.030218
      dxz     :     1.047157
      dyz     :     0.997502
      dx2y2   :     1.046191
      dxy     :     0.970278
      f0      :     0.000840  f :     0.005400
      f+1     :     0.000793
      f-1     :     0.000660
      f+2     :     0.000838
      f-2     :     0.000635
      f+3     :     0.000866
      f-3     :     0.000768

  1 C s       :     3.214640  s :     3.214640
      pz      :     0.895609  p :     2.699521
      px      :     0.899923
      py      :     0.903990
      dz2     :     0.004827  d :     0.038131
      dxz     :     0.007224
      dyz     :     0.006644
      dx2y2   :     0.010146
      dxy     :     0.009290

  2 C s       :     3.233371  s :     3.233371
      pz      :     0.917805  p :     2.684146
      px      :     0.895427
      py      :     0.870914
      dz2     :     0.006339  d :     0.038925
      dxz     :     0.006956
      dyz     :     0.005568
      dx2y2   :     0.009808
      dxy     :     0.010255

  3 C s       :     3.214390  s :     3.214390
      pz      :     0.945034  p :     2.699233
      px      :     0.856519
      py      :     0.897680
      dz2     :     0.006414  d :     0.038165
      dxz     :     0.005752
      dyz     :     0.005992
      dx2y2   :     0.010117
      dxy     :     0.009891

  4 H s       :     0.943745  s :     0.943745
      pz      :     0.007296  p :     0.022580
      px      :     0.007643
      py      :     0.007641

  5 C s       :     3.214149  s :     3.214149
      pz      :     0.964298  p :     2.704866
      px      :     0.815114
      py      :     0.925454
      dz2     :     0.004642  d :     0.037150
      dxz     :     0.006680
      dyz     :     0.005901
      dx2y2   :     0.009937
      dxy     :     0.009989

  6 H s       :     0.940999  s :     0.940999
      pz      :     0.004936  p :     0.022419
      px      :     0.006064
      py      :     0.011420

  7 C s       :     3.233923  s :     3.233923
      pz      :     0.935422  p :     2.684160
      px      :     0.933251
      py      :     0.815487
      dz2     :     0.004434  d :     0.038906
      dxz     :     0.007466
      dyz     :     0.006514
      dx2y2   :     0.009918
      dxy     :     0.010573

  8 H s       :     0.943716  s :     0.943716
      pz      :     0.004553  p :     0.022575
      px      :     0.012345
      py      :     0.005677

  9 H s       :     0.946988  s :     0.946988
      pz      :     0.006215  p :     0.022713
      px      :     0.013054
      py      :     0.003444

 10 H s       :     0.940950  s :     0.940950
      pz      :     0.006864  p :     0.022419
      px      :     0.003216
      py      :     0.012339

 11 C s       :     3.345789  s :     3.345789
      pz      :     0.774265  p :     2.487343
      px      :     0.773837
      py      :     0.939241
      dz2     :     0.010013  d :     0.072910
      dxz     :     0.007792
      dyz     :     0.017992
      dx2y2   :     0.021107
      dxy     :     0.016006

 12 O s       :     3.746845  s :     3.746845
      pz      :     1.473038  p :     4.310763
      px      :     1.436195
      py      :     1.401530
      dz2     :     0.002720  d :     0.020467
      dxz     :     0.001939
      dyz     :     0.004841
      dx2y2   :     0.005446
      dxy     :     0.005522

 13 C s       :     3.345701  s :     3.345701
      pz      :     0.943708  p :     2.487064
      px      :     0.735840
      py      :     0.807516
      dz2     :     0.023170  d :     0.072939
      dxz     :     0.018728
      dyz     :     0.017250
      dx2y2   :     0.006797
      dxy     :     0.006994

 14 O s       :     3.746922  s :     3.746922
      pz      :     1.389258  p :     4.310813
      px      :     1.467728
      py      :     1.453826
      dz2     :     0.006514  d :     0.020469
      dxz     :     0.004546
      dyz     :     0.006102
      dx2y2   :     0.001653
      dxy     :     0.001653

 15 N s       :     3.585998  s :     3.585998
      pz      :     1.114689  p :     3.349301
      px      :     1.071330
      py      :     1.163282
      dz2     :     0.005447  d :     0.060080
      dxz     :     0.018470
      dyz     :     0.002951
      dx2y2   :     0.015159
      dxy     :     0.018053

 16 O s       :     3.879239  s :     3.879239
      pz      :     1.490348  p :     4.255209
      px      :     1.245174
      py      :     1.519687
      dz2     :     0.002875  d :     0.025889
      dxz     :     0.007017
      dyz     :     0.000996
      dx2y2   :     0.007533
      dxy     :     0.007469



                     *******************************
                     * LOEWDIN POPULATION ANALYSIS *
                     *******************************

----------------------
LOEWDIN ATOMIC CHARGES
----------------------
   0 Cr:   -0.804829
   1 C :    0.018814
   2 C :    0.031969
   3 C :    0.019118
   4 H :    0.040980
   5 C :    0.005970
   6 H :    0.040677
   7 C :    0.031978
   8 H :    0.040975
   9 H :    0.040173
  10 H :    0.040669
  11 C :    0.163401
  12 O :   -0.001720
  13 C :    0.163648
  14 O :   -0.001751
  15 N :    0.228453
  16 O :   -0.058524

-------------------------------
LOEWDIN REDUCED ORBITAL CHARGES
-------------------------------
  0 Crs       :     6.266872  s :     6.266872
      pz      :     4.324185  p :    12.978426
      px      :     4.312670
      py      :     4.341570
      dz2     :     1.070965  d :     5.547356
      dxz     :     1.122923
      dyz     :     1.112522
      dx2y2   :     1.152357
      dxy     :     1.088590
      f0      :     0.001798  f :     0.012176
      f+1     :     0.001558
      f-1     :     0.001621
      f+2     :     0.001730
      f-2     :     0.001468
      f+3     :     0.001976
      f-3     :     0.002025

  1 C s       :     2.862687  s :     2.862687
      pz      :     0.960475  p :     3.026430
      px      :     1.036169
      py      :     1.029786
      dz2     :     0.009997  d :     0.092069
      dxz     :     0.015425
      dyz     :     0.014466
      dx2y2   :     0.028960
      dxy     :     0.023220

  2 C s       :     2.863738  s :     2.863738
      pz      :     0.957151  p :     3.010903
      px      :     1.019770
      py      :     1.033982
      dz2     :     0.012615  d :     0.093391
      dxz     :     0.016004
      dyz     :     0.013043
      dx2y2   :     0.025572
      dxy     :     0.026157

  3 C s       :     2.862613  s :     2.862613
      pz      :     0.975775  p :     3.026122
      px      :     1.040844
      py      :     1.009503
      dz2     :     0.012679  d :     0.092147
      dxz     :     0.013372
      dyz     :     0.014550
      dx2y2   :     0.026101
      dxy     :     0.025445

  4 H s       :     0.889582  s :     0.889582
      pz      :     0.021196  p :     0.069438
      px      :     0.024046
      py      :     0.024195

  5 C s       :     2.861538  s :     2.861538
      pz      :     1.010024  p :     3.042616
      px      :     1.016754
      py      :     1.015838
      dz2     :     0.009952  d :     0.089876
      dxz     :     0.013580
      dyz     :     0.014868
      dx2y2   :     0.024164
      dxy     :     0.027312

  6 H s       :     0.890138  s :     0.890138
      pz      :     0.014859  p :     0.069186
      px      :     0.019325
      py      :     0.035002

  7 C s       :     2.863778  s :     2.863778
      pz      :     0.985073  p :     3.010907
      px      :     1.023453
      py      :     1.002381
      dz2     :     0.009162  d :     0.093337
      dxz     :     0.018268
      dyz     :     0.012939
      dx2y2   :     0.024717
      dxy     :     0.028251

  8 H s       :     0.889610  s :     0.889610
      pz      :     0.013641  p :     0.069414
      px      :     0.037574
      py      :     0.018200

  9 H s       :     0.889442  s :     0.889442
      pz      :     0.019084  p :     0.070385
      px      :     0.039384
      py      :     0.011918

 10 H s       :     0.890120  s :     0.890120
      pz      :     0.020637  p :     0.069212
      px      :     0.011286
      py      :     0.037288

 11 C s       :     3.094536  s :     3.094536
      pz      :     0.785740  p :     2.584002
      px      :     0.799047
      py      :     0.999215
      dz2     :     0.021503  d :     0.158061
      dxz     :     0.016299
      dyz     :     0.038194
      dx2y2   :     0.043167
      dxy     :     0.038898

 12 O s       :     3.541191  s :     3.541191
      pz      :     1.470092  p :     4.427704
      px      :     1.451632
      py      :     1.505980
      dz2     :     0.004247  d :     0.032826
      dxz     :     0.002957
      dyz     :     0.007629
      dx2y2   :     0.007987
      dxy     :     0.010006

 13 C s       :     3.094330  s :     3.094330
      pz      :     1.008995  p :     2.583908
      px      :     0.738816
      py      :     0.836096
      dz2     :     0.050613  d :     0.158114
      dxz     :     0.036491
      dyz     :     0.043928
      dx2y2   :     0.013783
      dxy     :     0.013299

 14 O s       :     3.541160  s :     3.541160
      pz      :     1.502204  p :     4.427762
      px      :     1.447452
      py      :     1.478105
      dz2     :     0.010661  d :     0.032829
      dxz     :     0.005866
      dyz     :     0.011793
      dx2y2   :     0.002408
      dxy     :     0.002102

 15 N s       :     3.240927  s :     3.240927
      pz      :     1.083840  p :     3.402436
      px      :     1.184697
      py      :     1.133899
      dz2     :     0.013120  d :     0.128184
      dxz     :     0.036404
      dyz     :     0.005546
      dx2y2   :     0.035294
      dxy     :     0.037821

 16 O s       :     3.601401  s :     3.601401
      pz      :     1.491464  p :     4.409238
      px      :     1.387053
      py      :     1.530720
      dz2     :     0.006147  d :     0.047886
      dxz     :     0.011163
      dyz     :     0.001536
      dx2y2   :     0.015516
      dxy     :     0.013524



                      *****************************
                      * MAYER POPULATION ANALYSIS *
                      *****************************

  NA   - Mulliken gross atomic population
  ZA   - Total nuclear charge
  QA   - Mulliken gross atomic charge
  VA   - Mayer's total valence
  BVA  - Mayer's bonded valence
  FA   - Mayer's free valence

  ATOM       NA         ZA         QA         VA         BVA        FA
  0 Cr    24.2735    24.0000    -0.2735     6.8441     6.8441    -0.0000
  1 C      5.9523     6.0000     0.0477     3.7801     3.7801    -0.0000
  2 C      5.9564     6.0000     0.0436     3.7709     3.7709    -0.0000
  3 C      5.9518     6.0000     0.0482     3.7792     3.7792    -0.0000
  4 H      0.9663     1.0000     0.0337     0.9904     0.9904    -0.0000
  5 C      5.9562     6.0000     0.0438     3.7820     3.7820    -0.0000
  6 H      0.9634     1.0000     0.0366     0.9924     0.9924     0.0000
  7 C      5.9570     6.0000     0.0430     3.7711     3.7711    -0.0000
  8 H      0.9663     1.0000     0.0337     0.9904     0.9904    -0.0000
  9 H      0.9697     1.0000     0.0303     0.9920     0.9920    -0.0000
 10 H      0.9634     1.0000     0.0366     0.9925     0.9925    -0.0000
 11 C      5.9060     6.0000     0.0940     3.7843     3.7843    -0.0000
 12 O      8.0781     8.0000    -0.0781     2.5600     2.5600    -0.0000
 13 C      5.9057     6.0000     0.0943     3.7839     3.7839    -0.0000
 14 O      8.0782     8.0000    -0.0782     2.5600     2.5600    -0.0000
 15 N      6.9954     7.0000     0.0046     3.4107     3.4107    -0.0000
 16 O      8.1603     8.0000    -0.1603     2.3743     2.3743    -0.0000

  Mayer bond orders larger than 0.100000
B(  0-Cr,  1-C ) :   0.4580 B(  0-Cr,  2-C ) :   0.4617 B(  0-Cr,  3-C ) :   0.4577 
B(  0-Cr,  5-C ) :   0.4906 B(  0-Cr,  7-C ) :   0.4626 B(  0-Cr, 11-C ) :   1.1859 
B(  0-Cr, 12-O ) :   0.1385 B(  0-Cr, 13-C ) :   1.1855 B(  0-Cr, 14-O ) :   0.1385 
B(  0-Cr, 15-N ) :   1.3508 B(  0-Cr, 16-O ) :   0.4865 B(  1-C ,  2-C ) :   1.1270 
B(  1-C ,  3-C ) :   1.0998 B(  1-C ,  4-H ) :   1.0114 B(  2-C ,  5-C ) :   1.0990 
B(  2-C ,  6-H ) :   1.0152 B(  3-C ,  7-C ) :   1.1271 B(  3-C ,  8-H ) :   1.0114 
B(  5-C ,  7-C ) :   1.0976 B(  5-C ,  9-H ) :   1.0132 B(  7-C , 10-H ) :   1.0152 
B( 11-C , 12-O ) :   2.3235 B( 13-C , 14-O ) :   2.3234 B( 15-N , 16-O ) :   1.7381 


-------
TIMINGS
-------

Total SCF time: 0 days 0 hours 0 min 23 sec 

Total time                  ....      23.073 sec
Sum of individual times     ....      22.704 sec  ( 98.4%)

SCF preparation             ....       0.368 sec  (  1.6%)
Fock matrix formation       ....      19.798 sec  ( 85.8%)
  Startup                   ....       0.225 sec  (  1.1% of F)
  Split-RI-J                ....       1.999 sec  ( 10.1% of F)
  XC integration            ....      16.361 sec  ( 82.6% of F)
    Basis function eval.    ....       2.212 sec  ( 13.5% of XC)
    Density eval.           ....       5.059 sec  ( 30.9% of XC)
    XC-Functional eval.     ....       0.395 sec  (  2.4% of XC)
    XC-Potential eval.      ....       2.399 sec  ( 14.7% of XC)
Diagonalization             ....       0.000 sec  (  0.0%)
Density matrix formation    ....       0.528 sec  (  2.3%)
Total Energy calculation    ....       0.279 sec  (  1.2%)
Population analysis         ....       0.088 sec  (  0.4%)
Orbital Transformation      ....       0.104 sec  (  0.5%)
Orbital Orthonormalization  ....       0.000 sec  (  0.0%)
DIIS solution               ....       1.065 sec  (  4.6%)
SOSCF solution              ....       0.474 sec  (  2.1%)
Finished LeanSCF after  23.1 sec

Maximum memory used throughout the entire LEANSCF-calculation: 31.0 MB


           ************************************************************
           *        Program running with 20 parallel MPI-processes    *
           *              working on a common directory               *
           ************************************************************

------------------------------------------------------------------------------
                         ORCA PROPERTY INTEGRAL CALCULATIONS
------------------------------------------------------------------------------

GBWName                                   ... CpCrNO.gbw
Number of atoms                           ...     17
Number of basis functions                 ...    210
Max core memory                           ...   1024 MB

Dipole integrals                          ... YES
Quadrupole integrals                      ...  NO
Linear momentum integrals                 ...  NO
Angular momentum integrals                ...  NO
Higher moments length integrals           ...  NO
Higher moments velocity integrals         ...  NO
Kinetic energy integrals                  ...  NO
GIAO right hand sides                     ...  NO
GIAO dipole derivative integrals          ...  NO
SOC integrals                             ...  NO
EPR diamagnetic integrals (GIAO)          ...  NO
EPR gauge integrals                       ...  NO
Field gradient integrals                  ...  NO (   0 nuclei)
Spin-dipole/Fermi contact integrals       ...  NO (   0 nuclei)
Contact density integrals                 ...  NO (   0 nuclei)
Nucleus-orbit integrals                   ...  NO (   0 nuclei)
Geometric perturbations                   ...  NO (  17 nuclei)

Choice of electric origin   ... Center of mass
Position of electric origin ... (  0.1732, -0.2786,  0.6035) 
Choice of magnetic origin   ... GIAO
Position of magnetic origin ... (  0.0000,  0.0000,  0.0000) 

Calculating integrals                     ... Electric Dipole (Length)     done (  0.1 sec)

Property integrals calculated in   0.1 sec

Maximum memory used throughout the entire PROPINT-calculation: 12.1 MB

-------------------------   --------------------
FINAL SINGLE POINT ENERGY     -1594.344669704646
-------------------------   --------------------



           ************************************************************
           *        Program running with 20 parallel MPI-processes    *
           *              working on a common directory               *
           ************************************************************
------------------------------------------------------------------------------
                         ORCA SCF GRADIENT CALCULATION
------------------------------------------------------------------------------

Nuc. rep. gradient        (SHARK) ... done (  0.0 sec)
HCore & Overlap gradient  (SHARK) ... done (  0.2 sec)
Split-RIJ-J gradient      (SHARK) ... done (  0.4 sec)
XC gradient                       ... done (  2.8 sec)

------------------
CARTESIAN GRADIENT
------------------

   1   Cr  :   -0.000125367    0.000182572    0.000087779
   2   C   :   -0.000095002    0.000097576    0.000097286
   3   C   :    0.000083360   -0.000160731   -0.000057056
   4   C   :    0.000136857   -0.000135147   -0.000122946
   5   H   :   -0.000014467    0.000010851   -0.000024749
   6   C   :    0.000234252    0.000211145    0.000034862
   7   H   :    0.000005050    0.000031381    0.000015024
   8   C   :   -0.000309087   -0.000187813   -0.000014425
   9   H   :   -0.000018234    0.000015834    0.000003002
  10   H   :    0.000013713    0.000020824   -0.000005167
  11   H   :   -0.000017569   -0.000008817    0.000006189
  12   C   :   -0.000033400   -0.000139996    0.000001255
  13   O   :    0.000011232    0.000039264   -0.000065810
  14   C   :    0.000215510    0.000032706   -0.000024357
  15   O   :   -0.000081405   -0.000052764    0.000028322
  16   N   :    0.000054794    0.000128967    0.000064436
  17   O   :   -0.000060239   -0.000085852   -0.000023646

Difference to translation invariance:
           :    0.0000000000   -0.0000000000    0.0000000000

Difference to rotation invariance:
           :   -0.0000910402    0.0000287578   -0.0000608818

Norm of the Cartesian gradient     ...    0.0007272031
RMS gradient                       ...    0.0001018288
MAX gradient                       ...    0.0003090870

-------
TIMINGS
-------

Total SCF gradient time     ....        3.345 sec

Densities                   ....       0.002 sec  (  0.1%)
One electron gradient       ....       0.153 sec  (  4.6%)
RI-J Coulomb gradient       ....       0.411 sec  ( 12.3%)
XC gradient                 ....       2.777 sec  ( 83.0%)

Maximum memory used throughout the entire SCFGRAD-calculation: 36.4 MB
------------------------------------------------------------------------------
                         ORCA GEOMETRY RELAXATION STEP
------------------------------------------------------------------------------

Reading the OPT-File                    .... done
Getting information on internals        .... done
Copying old internal coords+grads       .... done
Making the new internal coordinates     .... (2022 redundants) done
Validating the new internal coordinates .... (2022 redundants) done
Calculating the B-matrix                .... done
Calculating the G,G- and P matrices     .... done
Transforming gradient to internals      .... done
Projecting the internal gradient        .... done
Number of atoms                         ....  17
Number of internal coordinates          .... 180
Current Energy                          .... -1594.344669705 Eh
Current gradient norm                   ....     0.000727203 Eh/bohr
Maximum allowed component of the step   ....  0.300
Current trust radius                    ....  0.300
Evaluating the initial hessian          ....  (Almloef) done
Projecting the Hessian                  .... done
Forming the augmented Hessian           .... done
Diagonalizing the augmented Hessian     .... done
Last element of RFO vector              ....  0.999998769
Lowest eigenvalues of augmented Hessian:
 -0.000000496  0.033127637  0.048046998  0.049390860  0.068327782
Length of the computed step             ....  0.001568994
The final length of the internal step   ....  0.001568994
Converting the step to Cartesian space:
 Initial RMS(Int)=    0.0001169459
Transforming coordinates:
 Iter   0:  RMS(Cart)=    0.0002660636 RMS(Int)=    0.0001164123
 Iter   5:  RMS(Cart)=    0.0000005986 RMS(Int)=    0.0000002003
done
Storing new coordinates                 .... done

                                .--------------------.
          ----------------------|Geometry convergence|-------------------------
          Item                value                   Tolerance       Converged
          ---------------------------------------------------------------------
          RMS gradient        0.0000318530            0.0001000000      YES
          MAX gradient        0.0002006185            0.0003000000      YES
          RMS step            0.0001169459            0.0020000000      YES
          MAX step            0.0004981046            0.0040000000      YES
          ........................................................
          Max(Bonds)      0.0003      Max(Angles)    0.01
          Max(Dihed)        0.02      Max(Improp)    0.00
          ---------------------------------------------------------------------

                    ***********************HURRAY********************
                    ***        THE OPTIMIZATION HAS CONVERGED     ***
                    *************************************************


    ---------------------------------------------------------------------------
                         Redundant Internal Coordinates

                          --- Optimized Parameters ---  
                            (Angstroem and degrees)

        Definition                    OldVal   dE/dq     Step     FinalVal
    ----------------------------------------------------------------------------
     1. B(C   1,Cr  0)                2.2041  0.000001  0.0000    2.2041   
     2. B(C   2,Cr  0)                2.2006  0.000010 -0.0000    2.2006   
     3. B(C   2,C   1)                1.4248  0.000080 -0.0001    1.4248   
     4. B(C   3,C   1)                1.4346  0.000070 -0.0001    1.4345   
     5. B(C   3,Cr  0)                2.2037 -0.000004  0.0000    2.2037   
     6. B(H   4,C   1)                1.0914  0.000003 -0.0000    1.0914   
     7. B(C   5,Cr  0)                2.1979  0.000033 -0.0000    2.1979   
     8. B(C   5,C   2)                1.4347 -0.000036  0.0000    1.4348   
     9. B(H   6,C   2)                1.0914  0.000032 -0.0000    1.0913   
    10. B(C   7,C   5)                1.4356  0.000201 -0.0003    1.4353   
    11. B(C   7,C   3)                1.4245 -0.000086  0.0001    1.4246   
    12. B(C   7,Cr  0)                2.2001  0.000021 -0.0000    2.2001   
    13. B(H   8,C   3)                1.0914  0.000009 -0.0000    1.0914   
    14. B(H   9,C   5)                1.0908  0.000013 -0.0000    1.0908   
    15. B(H  10,C   7)                1.0913  0.000005 -0.0000    1.0913   
    16. B(C  11,Cr  0)                1.8575 -0.000069  0.0000    1.8575   
    17. B(O  12,C  11)                1.1623  0.000059 -0.0000    1.1623   
    18. B(C  13,Cr  0)                1.8574  0.000024 -0.0000    1.8574   
    19. B(O  14,C  13)                1.1623 -0.000008  0.0000    1.1623   
    20. B(N  15,Cr  0)                1.6882  0.000010 -0.0000    1.6882   
    21. B(O  16,N  15)                1.1753  0.000035 -0.0000    1.1753   
    22. A(C   2,Cr  0,N  15)          129.80  0.000004   -0.00    129.80   
    23. A(C   2,Cr  0,C  13)          135.34 -0.000041    0.01    135.35   
    24. A(C   1,Cr  0,C   3)           37.99  0.000018   -0.00     37.99   
    25. A(C   5,Cr  0,C  13)           98.40 -0.000032    0.01     98.41   
[...]
     33      -0.000160   0.044567   0.262711  -0.261680   0.000041  -0.000042
     34      -0.000116   0.091855   0.472753  -0.470785   0.000158  -0.000151
     35       0.000484  -0.038686  -0.191753   0.187186   0.000033  -0.000013
     36       0.000442  -0.036435  -0.188144   0.184185  -0.000029   0.000037
     37       0.000899  -0.068876  -0.338134   0.331863  -0.000077   0.000071
     38      -0.000563   0.027616   0.135762  -0.130957   0.000013  -0.000021
     39       0.000187   0.008756  -0.074009  -0.072424   0.000032   0.000027
     40       0.000171  -0.052242   0.287596   0.286239   0.000140   0.000116
     41      -0.000464  -0.095864   0.494067   0.484625   0.000085   0.000091
     42      -0.000126  -0.009046   0.052916   0.050645  -0.000003   0.000007
     43       0.000396   0.041312  -0.206750  -0.202359  -0.000054  -0.000045
     44       0.001070   0.071348  -0.352338  -0.340806  -0.000065  -0.000064
     45       0.000123   0.731995   0.000259   0.133679  -0.000040  -0.000004
     46       0.000501  -0.241010  -0.001257  -0.043568  -0.000152   0.000008
     47       0.000169   0.152306  -0.000309   0.026759  -0.000061  -0.000012
     48      -0.000016  -0.546520  -0.000098  -0.097236   0.000012   0.000014
     49      -0.000115   0.178646   0.001256   0.031266   0.000037  -0.000013
     50      -0.000030  -0.110895   0.000375  -0.018442   0.000016   0.000023
                 48         49         50    
      0       0.000076   0.000198   0.000094
      1       0.000275  -0.000016  -0.000078
      2       0.000105  -0.000114   0.000137
      3       0.022617  -0.030521   0.022010
      4      -0.017161   0.032617  -0.021043
      5      -0.016165   0.026304  -0.017511
      6      -0.028365   0.003216  -0.020234
      7      -0.043932  -0.001566  -0.034218
      8      -0.012433  -0.001979  -0.010079
      9      -0.032910  -0.042318   0.030881
     10      -0.013639  -0.023948   0.015426
     11       0.004716   0.002838  -0.002821
     12      -0.223710   0.348456  -0.224896
     13       0.215188  -0.345631   0.221103
     14       0.177763  -0.281731   0.179910
     15      -0.001085  -0.051820  -0.052973
     16       0.003928   0.005396   0.005459
     17       0.002229   0.019056   0.020005
     18       0.299396  -0.001164   0.213513
     19       0.490690   0.005036   0.353665
     20       0.138725   0.003242   0.099647
     21       0.005446   0.003500  -0.002261
     22      -0.048310   0.003871   0.036769
     23      -0.024528   0.000518   0.018254
     24       0.350492   0.470572  -0.317691
     25       0.175950   0.242773  -0.161776
     26      -0.030677  -0.037844   0.025613
     27       0.021846   0.579941   0.565221
     28      -0.006107  -0.059275  -0.057464
     29      -0.010143  -0.219589  -0.215114
     30      -0.042389  -0.001081   0.028058
     31       0.532791  -0.036913  -0.379154
     32       0.270426  -0.016992  -0.192818
     33      -0.000081  -0.000071  -0.000010
     34      -0.000223   0.000049  -0.000072
     35      -0.000024   0.000046   0.000156
     36       0.000053   0.000013   0.000026
     37       0.000111  -0.000011   0.000065
     38      -0.000020  -0.000006  -0.000058
     39      -0.000029  -0.000090  -0.000006
     40      -0.000194  -0.000021  -0.000051
     41      -0.000140   0.000023   0.000167
     42      -0.000004   0.000017   0.000007
     43       0.000081   0.000001  -0.000015
     44       0.000096  -0.000006  -0.000091
     45      -0.000039  -0.000142   0.000017
     46      -0.000129   0.000001  -0.000059
     47      -0.000047   0.000108   0.000134
     48       0.000011   0.000115  -0.000039
     49       0.000023  -0.000024   0.000039
     50       0.000009  -0.000016  -0.000072


-----------
IR SPECTRUM
-----------

 Mode   freq       eps      Int      T**2         TX        TY        TZ
       cm**-1   L/(mol*cm) km/mol    a.u.
----------------------------------------------------------------------------
  6:     24.99   0.000011    0.05  0.000132  ( 0.002433  0.010504  0.004005)
  7:     89.27   0.000032    0.16  0.000113  (-0.010238  0.001110  0.002647)
  8:     93.20   0.000049    0.25  0.000165  (-0.002733 -0.011654 -0.004626)
  9:    104.50   0.000042    0.21  0.000126  (-0.002903  0.004633 -0.009781)
 10:    118.34   0.000012    0.06  0.000033  ( 0.005579 -0.001211 -0.000399)
 11:    125.67   0.000005    0.03  0.000012  (-0.000585 -0.003184 -0.001401)
 12:    340.50   0.000026    0.13  0.000024  ( 0.004725 -0.000056 -0.001245)
 13:    343.34   0.000512    2.59  0.000466  ( 0.005083  0.019506  0.007697)
 14:    365.05   0.000198    1.00  0.000169  ( 0.012656 -0.002906 -0.000786)
 15:    405.91   0.000130    0.66  0.000100  ( 0.002275  0.009117  0.003469)
 16:    468.16   0.000003    0.02  0.000002  ( 0.000494  0.001245  0.000440)
 17:    476.29   0.000100    0.50  0.000065  (-0.004333  0.003319 -0.005960)
 18:    498.52   0.005794   29.28  0.003627  (-0.052919  0.020889 -0.019751)
 19:    509.18   0.004662   23.56  0.002857  (-0.011956 -0.048520 -0.018974)
 20:    583.45   0.000779    3.94  0.000417  (-0.019116  0.002246  0.006791)
 21:    600.76   0.000007    0.03  0.000004  (-0.000244 -0.001866 -0.000012)
 22:    602.04   0.000108    0.55  0.000056  ( 0.002023 -0.002864  0.006627)
 23:    673.46   0.009233   46.66  0.004278  ( 0.015440  0.059553  0.022215)
 24:    681.65   0.012438   62.85  0.005694  (-0.029941 -0.017644  0.066979)
 25:    714.27   0.007231   36.54  0.003159  (-0.034123  0.023719 -0.037845)
 26:    817.14   0.001777    8.98  0.000679  ( 0.012169 -0.011048  0.020215)
 27:    820.32   0.000033    0.17  0.000013  (-0.000686 -0.003140 -0.001496)
 28:    824.19   0.000445    2.25  0.000169  (-0.012633  0.002892  0.000824)
 29:    829.69   0.004990   25.22  0.001877  ( 0.006266 -0.017102  0.039310)
 30:    846.86   0.000683    3.45  0.000252  ( 0.003652  0.014601  0.005019)
 31:    915.57   0.000245    1.24  0.000083  ( 0.007968 -0.003084  0.003226)
 32:    918.96   0.000083    0.42  0.000028  ( 0.001003  0.004833  0.001945)
 33:   1007.58   0.001436    7.26  0.000445  (-0.020086  0.003163  0.005606)
 34:   1017.38   0.001076    5.44  0.000330  (-0.004462 -0.016393 -0.006428)
 35:   1062.58   0.000128    0.65  0.000038  (-0.001386 -0.005504 -0.002329)
 36:   1063.80   0.000058    0.29  0.000017  (-0.003069  0.001690 -0.002162)
 37:   1122.61   0.000385    1.95  0.000107  (-0.003139  0.004341 -0.008848)
 38:   1266.77   0.000000    0.00  0.000000  (-0.000158 -0.000273 -0.000133)
 39:   1387.85   0.000097    0.49  0.000022  (-0.000942 -0.004196 -0.001820)
 40:   1397.41   0.000122    0.62  0.000027  ( 0.003611 -0.002146  0.003104)
 41:   1442.64   0.000750    3.79  0.000162  (-0.011060  0.000352  0.006307)
 42:   1453.66   0.000653    3.30  0.000140  ( 0.002794  0.010708  0.004213)
 43:   1849.26   0.176551  892.22  0.029793  ( 0.167423 -0.041974  0.000870)
 44:   1994.29   0.175584  887.33  0.027475  ( 0.037333  0.149989  0.059873)
 45:   2047.41   0.124522  629.28  0.018979  (-0.036797 -0.041461  0.126120)
 46:   3202.89   0.000001    0.01  0.000000  (-0.000041 -0.000328 -0.000040)
 47:   3205.05   0.000030    0.15  0.000003  (-0.001312  0.000641 -0.000902)
 48:   3217.82   0.000142    0.72  0.000014  (-0.000915 -0.003385 -0.001225)
 49:   3219.76   0.000076    0.39  0.000007  (-0.001447 -0.000426  0.002264)
 50:   3229.03   0.000152    0.77  0.000015  (-0.000932  0.001581 -0.003364)

* The epsilon (eps) is given for a Dirac delta lineshape.
** The dipole moment derivative (T) already includes vibrational overlap.

The first frequency considered to be a vibration is 6
The total number of vibrations considered is 45


--------------------------
THERMOCHEMISTRY AT 298.15K
--------------------------

Temperature         ...   298.15 K
Pressure            ...     1.00 atm
Total Mass          ...   203.12 AMU
Quasi RRHO          ...     True
Cut-Off Frequency   ...     1.00 cm^-1

Throughout the following assumptions are being made:
  (1) The electronic state is orbitally nondegenerate
  (2) There are no thermally accessible electronically excited states
  (3) Hindered rotations indicated by low frequency modes are not
      treated as such but are treated as vibrations and this may
      cause some error
  (4) All equations used are the standard statistical mechanics
      equations for an ideal gas
  (5) All vibrations are strictly harmonic

freq.      24.99  E(vib)   ...       0.56 
freq.      89.27  E(vib)   ...       0.47 
freq.      93.20  E(vib)   ...       0.47 
freq.     104.50  E(vib)   ...       0.46 
freq.     118.34  E(vib)   ...       0.44 
freq.     125.67  E(vib)   ...       0.43 
freq.     340.50  E(vib)   ...       0.23 
freq.     343.34  E(vib)   ...       0.23 
freq.     365.05  E(vib)   ...       0.22 
freq.     405.91  E(vib)   ...       0.19 
freq.     468.16  E(vib)   ...       0.16 
freq.     476.29  E(vib)   ...       0.15 
freq.     498.52  E(vib)   ...       0.14 
freq.     509.18  E(vib)   ...       0.14 
freq.     583.45  E(vib)   ...       0.11 
freq.     600.76  E(vib)   ...       0.10 
freq.     602.04  E(vib)   ...       0.10 
freq.     673.46  E(vib)   ...       0.08 
freq.     681.65  E(vib)   ...       0.08 
freq.     714.27  E(vib)   ...       0.07 
freq.     817.14  E(vib)   ...       0.05 
freq.     820.32  E(vib)   ...       0.05 
freq.     824.19  E(vib)   ...       0.04 
freq.     829.69  E(vib)   ...       0.04 
freq.     846.86  E(vib)   ...       0.04 
freq.     915.57  E(vib)   ...       0.03 
freq.     918.96  E(vib)   ...       0.03 
freq.    1007.58  E(vib)   ...       0.02 
freq.    1017.38  E(vib)   ...       0.02 
freq.    1062.58  E(vib)   ...       0.02 
freq.    1063.80  E(vib)   ...       0.02 
freq.    1122.61  E(vib)   ...       0.01 
freq.    1266.77  E(vib)   ...       0.01 
freq.    1387.85  E(vib)   ...       0.00 
freq.    1397.41  E(vib)   ...       0.00 
freq.    1442.64  E(vib)   ...       0.00 
freq.    1453.66  E(vib)   ...       0.00 
freq.    1849.26  E(vib)   ...       0.00 
freq.    1994.29  E(vib)   ...       0.00 
freq.    2047.41  E(vib)   ...       0.00 
freq.    3202.89  E(vib)   ...       0.00 
freq.    3205.05  E(vib)   ...       0.00 
freq.    3217.82  E(vib)   ...       0.00 
freq.    3219.76  E(vib)   ...       0.00 
freq.    3229.03  E(vib)   ...       0.00 

------------
INNER ENERGY
------------

The inner energy is: U= E(el) + E(ZPE) + E(vib) + E(rot) + E(trans)
    E(el)   - is the total energy from the electronic structure calculation
              = E(kin-el) + E(nuc-el) + E(el-el) + E(nuc-nuc)
    E(ZPE)  - the the zero temperature vibrational energy from the frequency calculation
    E(vib)  - the the finite temperature correction to E(ZPE) due to population
              of excited vibrational states
    E(rot)  - is the rotational thermal energy
    E(trans)- is the translational thermal energy

Summary of contributions to the inner energy U:
Electronic energy                ...  -1594.34467012 Eh
Zero point energy                ...      0.10930436 Eh      68.59 kcal/mol
Thermal vibrational correction   ...      0.00831489 Eh       5.22 kcal/mol
Thermal rotational correction    ...      0.00141627 Eh       0.89 kcal/mol
Thermal translational correction ...      0.00141627 Eh       0.89 kcal/mol
-----------------------------------------------------------------------
Total thermal energy                  -1594.22421832 Eh


Summary of corrections to the electronic energy:
(perhaps to be used in another calculation)
Total thermal correction                  0.01114743 Eh       7.00 kcal/mol
Non-thermal (ZPE) correction              0.10930436 Eh      68.59 kcal/mol
-----------------------------------------------------------------------
Total correction                          0.12045180 Eh      75.58 kcal/mol


--------
ENTHALPY
--------

The enthalpy is H = U + kB*T
                kB is Boltzmann's constant
Total thermal energy              ...  -1594.22421832 Eh 
Thermal Enthalpy correction       ...      0.00094421 Eh       0.59 kcal/mol
-----------------------------------------------------------------------
Total Enthalpy                    ...  -1594.22327411 Eh


Note: Only C1 symmetry has been detected, increase convergence thresholds 
      if your molecule has a higher symmetry. Symmetry factor of 1.0 is   
      used for the rotational entropy correction. 
 

Note: Rotational entropy computed according to Herzberg 
Infrared and Raman Spectra, Chapter V,1, Van Nostrand Reinhold, 1945 
Point Group:  C1, Symmetry Number:   1  
Rotational constants in cm-1:     0.033210     0.026966     0.026924 

Vibrational entropy computed according to the QRRHO of S. Grimme
Chem.Eur.J. 2012 18 9955 using a reference frequency of 100.0 cm-1


-------
ENTROPY
-------

The entropy contributions are T*S = T*(S(el)+S(vib)+S(rot)+S(trans))
     S(el)   - electronic entropy
     S(vib)  - vibrational entropy
     S(rot)  - rotational entropy
     S(trans)- translational entropy
The entropies will be listed as multiplied by the temperature to get
units of energy

Electronic entropy                ...      0.00000000 Eh      0.00 kcal/mol
Vibrational entropy               ...      0.01469142 Eh      9.22 kcal/mol
Rotational entropy                ...      0.01453046 Eh      9.12 kcal/mol
Translational entropy             ...      0.01987486 Eh     12.47 kcal/mol
-----------------------------------------------------------------------
Final entropy term                ...      0.04909673 Eh     30.81 kcal/mol

In case the symmetry of your molecule has not been determined correctly
or in case you have a reason to use a different symmetry number we print 
out the resulting rotational entropy values for sn=1,12:

 non-linear molecules -----------------------------------
|  sn= 1 | S(rot)=       0.01453046 Eh      9.12 kcal/mol|
|  sn= 2 | S(rot)=       0.01387600 Eh      8.71 kcal/mol|
|  sn= 3 | S(rot)=       0.01349317 Eh      8.47 kcal/mol|
|  sn= 4 | S(rot)=       0.01322155 Eh      8.30 kcal/mol|
|  sn= 5 | S(rot)=       0.01301086 Eh      8.16 kcal/mol|
|  sn= 6 | S(rot)=       0.01283871 Eh      8.06 kcal/mol|
|  sn= 7 | S(rot)=       0.01269317 Eh      7.97 kcal/mol|
|  sn= 8 | S(rot)=       0.01256709 Eh      7.89 kcal/mol|
|  sn= 9 | S(rot)=       0.01245588 Eh      7.82 kcal/mol|
|  sn=10 | S(rot)=       0.01235640 Eh      7.75 kcal/mol|
|  sn=11 | S(rot)=       0.01226641 Eh      7.70 kcal/mol|
|  sn=12 | S(rot)=       0.01218426 Eh      7.65 kcal/mol|
 linear molecules ---------------------------------------
|  Dinfh | S(rot)=       0.00873876 Eh      5.48 kcal/mol|
|  Cinfv | S(rot)=       0.00939322 Eh      5.89 kcal/mol|
 --------------------------------------------------------


-------------------
GIBBS FREE ENERGY
-------------------

The Gibbs free energy is G = H - T*S

Total enthalpy                    ...  -1594.22327411 Eh 
Total entropy correction          ...     -0.04909673 Eh    -30.81 kcal/mol
-----------------------------------------------------------------------
Final Gibbs free energy         ...  -1594.27237084 Eh

For completeness - the Gibbs free energy minus the electronic energy
G-E(el)                           ...      0.07229927 Eh     45.37 kcal/mol


Maximum memory used throughout the entire PROP-calculation: 50.6 MB

--------------------------------
SUGGESTED CITATIONS FOR THIS RUN
--------------------------------

Below you find a list of papers that are relevant to this ORCA run
We neither can nor want to force you to cite these papers, but we appreciate if you do
You receive ORCA, which is the product of decades of hard work by many enthusiastic individuals, for free
The only thing we kindly ask in return is that you cite our papers,
We deeply appreciate it, if you show your appreciation for ORCA by not just citing the generic ORCA reference.

Please note that relegating all ORCA citations to the supporting information does *not* help us.
SI sections are not indexed - citations you put there will not count into any citation statistics
But we need these citations in order to attract the funding resources that allow us to do what we are doing

Therefore, if you are a happy ORCA user, please consider citing a few of the papers listed below in the main body of your paper

In addition to the list printed below, the program has created the file CpCrNO.bibtex that contains the list in bibtex format
You can import this file easily into all common literature databanks and citation aid programs


List of essential papers. We consider these as the minimum necessary citations

  1. Neese,F.
     Software update: the ORCA program system, version 5.0
     WIRES Comput. Molec. Sci., 2022 12(1)e1606
     doi.org/10.1002/wcms.1606

List of papers to cite with high priority. The work reported in these papers was absolutely
necessary for this run to complete.
Our perspective: the developers of density functionals and basis sets usually get cited in chemistry papers
Good! But without the algorithms to do something with them, the functionals or basis sets would not do anything.
Hence, in our opinion, the algorithm design and method developments papers are equally worthy of getting cited

  1. Neese,F.
     An improvement of the resolution of the identity approximation for the formation of the Coulomb matrix
     J. Comp. Chem., 2003 24(14)1740-1747
     doi.org/10.1002/jcc.10318
  2. Bykov,D.; Petrenko,T.; Izsak,R.; Kossmann,S.; Becker,U.; Valeev,E.; Neese,F.
     Efficient implementation of the analytic second derivatives of Hartree-Fock and hybrid DFT energies: a detailed analysis of different approximations
     Molec. Phys., 2015 113 1961-1977
     doi.org/10.1080/00268976.2015.1025114
  3. Neese,F.
     The SHARK Integral Generation and Digestion System
     J. Comp. Chem., 2022  1-16
     doi.org/10.1002/jcc.26942

List of suggested additional citations. These are papers that are important in the 'surrounding' of 
of this run, or papers that preceded the highly important papers. If you like your results we are grateful for a citation.

  1. Neese,F.
     The ORCA program system
     WIRES Comput. Molec. Sci., 2012 2(1)73-78
     doi.org/10.1002/wcms.81
  2. Neese,F.
     Software update: the ORCA program system, version 4.0
     WIRES Comput. Molec. Sci., 2018 8(1)1-6
     doi.org/10.1002/wcms.1327
  3. Neese,F.; Wennmohs,F.; Becker,U.; Riplinger,C.
     The ORCA quantum chemistry program package
     J. Chem. Phys., 2020 152 Art. No. L224108
     doi.org/10.1063/5.0004608

List of optional additional citations

  1. Neese,F.
     Approximate second-order SCF convergence for spin unrestricted wavefunctions
     Chem. Phys. Lett., 2000 325(1-3)93-98
     doi.org/10.1016/s0009-2614(00)00662-x

Timings for individual modules:

Sum of individual times          ...      202.449 sec (=   3.374 min)
Startup calculation              ...        6.375 sec (=   0.106 min)   3.1 %
SCF iterations                   ...       35.958 sec (=   0.599 min)  17.8 %
Property integrals               ...       70.867 sec (=   1.181 min)  35.0 %
SCF Response                     ...       61.058 sec (=   1.018 min)  30.2 %
Property calculations            ...       24.371 sec (=   0.406 min)  12.0 %
SCF Gradient evaluation          ...        3.782 sec (=   0.063 min)   1.9 %
Geometry relaxation              ...        0.038 sec (=   0.001 min)   0.0 %
                             ****ORCA TERMINATED NORMALLY****
TOTAL RUN TIME: 0 days 0 hours 3 minutes 23 seconds 541 msec
