
                                 *****************
                                 * O   R   C   A *
                                 *****************

           --- An Ab Initio, DFT and Semiempirical electronic structure package ---

                  #######################################################
                  #                        -***-                        #
                  #          Department of theory and spectroscopy      #
                  #               Directorship: Frank Neese             #
                  #        Max Planck Institute fuer Kohlenforschung    #
                  #                Kaiser Wilhelm Platz 1               #
                  #                 D-45470 Muelheim/Ruhr               #
                  #                      Germany                        #
                  #                                                     #
                  #                  All rights reserved                #
                  #                        -***-                        #
                  #######################################################


                         Program Version 4.2.1 -  RELEASE  -


 With contributions from (in alphabetic order):
   Daniel Aravena         : Magnetic Suceptibility
   Michael Atanasov       : Ab Initio Ligand Field Theory (pilot matlab implementation)
   Alexander A. Auer      : GIAO ZORA, VPT2
   Ute Becker             : Parallelization
   Giovanni Bistoni       : ED, misc. LED, open-shell LED, HFLD
   Martin Brehm           : Molecular dynamics
   Dmytro Bykov           : SCF Hessian
   Vijay G. Chilkuri      : MRCI spin determinant printing, contributions to CSF-ICE
   Dipayan Datta          : RHF DLPNO-CCSD density
   Achintya Kumar Dutta   : EOM-CC, STEOM-CC
   Dmitry Ganyushin       : Spin-Orbit,Spin-Spin,Magnetic field MRCI
   Miquel Garcia          : C-PCM Hessian, Gaussian charge scheme
   Yang Guo               : DLPNO-NEVPT2, CIM, IAO-localization
   Andreas Hansen         : Spin unrestricted coupled pair/coupled cluster methods
   Benjamin Helmich-Paris : CASSCF linear response (MC-RPA)
   Lee Huntington         : MR-EOM, pCC
   Robert Izsak           : Overlap fitted RIJCOSX, COSX-SCS-MP3, EOM
   Christian Kollmar      : KDIIS, OOCD, Brueckner-CCSD(T), CCSD density
   Simone Kossmann        : Meta GGA functionals, TD-DFT gradient, OOMP2, MP2 Hessian
   Martin Krupicka        : AUTO-CI
   Lucas Lang             : DCDCAS
   Dagmar Lenk            : GEPOL surface, SMD
   Dimitrios Liakos       : Extrapolation schemes; Compound Job, initial MDCI parallelization
   Dimitrios Manganas     : Further ROCIS development; embedding schemes
   Dimitrios Pantazis     : SARC Basis sets
   Taras Petrenko         : DFT Hessian,TD-DFT gradient, ASA, ECA, R-Raman, ABS, FL, XAS/XES, NRVS
   Peter Pinski           : DLPNO-MP2, DLPNO-MP2 Gradient
   Christoph Reimann      : Effective Core Potentials
   Marius Retegan         : Local ZFS, SOC
   Christoph Riplinger    : Optimizer, TS searches, QM/MM, DLPNO-CCSD(T), (RO)-DLPNO pert. Triples
   Tobias Risthaus        : Range-separated hybrids, TD-DFT gradient, RPA, STAB
   Michael Roemelt        : Original ROCIS implementation
   Masaaki Saitow         : Open-shell DLPNO-CCSD energy and density
   Barbara Sandhoefer     : DKH picture change effects
   Avijit Sen             : IP-ROCIS
   Kantharuban Sivalingam : CASSCF convergence, NEVPT2, FIC-MRCI
   Bernardo de Souza      : ESD, SOC TD-DFT
   Georgi Stoychev        : AutoAux, RI-MP2 NMR
   Willem Van den Heuvel  : Paramagnetic NMR
   Boris Wezisla          : Elementary symmetry handling
   Frank Wennmohs         : Technical directorship


 We gratefully acknowledge several colleagues who have allowed us to
 interface, adapt or use parts of their codes:
   Stefan Grimme, W. Hujo, H. Kruse,             : VdW corrections, initial TS optimization,
                  C. Bannwarth                     DFT functionals, gCP, sTDA/sTD-DF
   Ed Valeev, F. Pavosevic, A. Kumar             : LibInt (2-el integral package), F12 methods
   Garnet Chan, S. Sharma, J. Yang, R. Olivares  : DMRG
   Ulf Ekstrom                                   : XCFun DFT Library
   Mihaly Kallay                                 : mrcc  (arbitrary order and MRCC methods)
   Andreas Klamt, Michael Diedenhofen            : otool_cosmo (COSMO solvation model)
   Jiri Pittner, Ondrej Demel                    : Mk-CCSD
   Frank Weinhold                                : gennbo (NPA and NBO analysis)
   Christopher J. Cramer and Donald G. Truhlar   : smd solvation model
   Lars Goerigk                                  : TD-DFT with DH, B97 family of functionals
   V. Asgeirsson, H. Jonsson                     : NEB implementation
   FAccTs GmbH                                   : IRC, NEB, NEB-TS, Multilevel, MM, QM/MM, CI optimization
   S Lehtola, MJT Oliveira, MAL Marques          : LibXC Library


 Your calculation uses the libint2 library for the computation of 2-el integrals
 For citations please refer to: http://libint.valeyev.net

 Your ORCA version has been built with support for libXC version: 4.2.3
 For citations please refer to: https://tddft.org/programs/libxc/

 This ORCA versions uses:
   CBLAS   interface :  Fast vector & matrix operations
   LAPACKE interface :  Fast linear algebra routines
   SCALAPACK package :  Parallel linear algebra routines


Your calculation utilizes the atom-pairwise dispersion correction
with the Becke-Johnson damping scheme (D3BJ)
Cite in your paper:
S.Grimme, S.Ehrlich, L.Goerigk, J Comput Chem, (2011), 32, 1456–1465 
S.Grimme, J.Antony, S.Ehrlich and H.Krieg, J.Chem.Phys., 132, (2010), 154104 
   

Your calculation utilizes the SMD solvation module
Please cite in your paper:
A.V. Marenich, C.J. Cramer, D.G. Truhlar J. Phys. Chem. B, 113, (2009), 6378 

----- Orbital basis set information -----
Your calculation utilizes the basis: def2-QZVPP
   F. Weigend and R. Ahlrichs, Phys. Chem. Chem. Phys. 7, 3297 (2005).

----- AuxJ basis set information -----
Your calculation utilizes the auxiliary basis: def2/J
   F. Weigend, Phys. Chem. Chem. Phys. 8, 1057 (2006).

----- AuxC basis set information -----
Your calculation utilizes the auxiliary basis: def2-QZVPP/C
  H-La, Hf-Rn : A. Hellweg, C. Hattig, S. Hofener and W. Klopper, Theor. Chem. Acc. 117, 587 (2007).
        Ce-Lu : J. Chmela and M. E. Harding, Mol. Phys. (2018).

================================================================================
                                        WARNINGS
                       Please study these warnings very carefully!
================================================================================


WARNING: No MP2 level density has been requested!
         To caclulate MP2 level properties use
         %mp2 Density relaxed end
         or
         %mp2 Density unrelaxed end
         Otherwise for double-hybrid DFT only the energy is correct!

WARNING: The frozen-core approximation is turned on by default for 
         the MP2 part of double-hybrid DFT.

INFO   : the flag for use of LIBINT has been found!

================================================================================
                                       INPUT FILE
================================================================================
NAME = orcaSP.inp
|  1> ! PWPB95 D3 def2-QZVPP def2/J def2-QZVPP/C RIJCOSX grid4 gridx4 tightSCF noautostart miniprint nopop
|  2> %maxcore 6000
|  3> %pal nprocs 36 end
|  4> %cpcm
|  5> smd true
|  6> SMDsolvent "water"
|  7> end
|  8> * xyz 0 1
|  9> C       2.80274100    0.79162600    2.73722700
| 10> C       3.78096800   -0.32627000    2.37036800
| 11> C       5.22272100    0.15869700    2.13234300
| 12> C       6.24585400   -0.99781500    2.14797500
| 13> C       6.01371600   -2.13010000    1.13991500
| 14> C       5.35126900    1.06220000    0.90364700
| 15> O       4.98439200    0.34950700   -0.30350900
| 16> C       3.85831800    0.70129100   -0.94551700
| 17> O       3.16203800    1.65741300   -0.68161900
| 18> C       3.59842000   -0.27471400   -2.09692800
| 19> C       4.57082500   -0.00713400   -3.25065700
| 20> N       2.22259800   -0.20155200   -2.57213200
| 21> P       0.99973100   -0.68756700   -1.54466700
| 22> O       1.50172200   -1.21044100   -0.25258700
| 23> O       0.17580900   -1.71939100   -2.46773700
| 24> C      -1.18432100   -2.10423000   -2.20897100
| 25> C      -1.39718700   -2.73180000   -0.83314100
| 26> C      -2.73278600   -3.47880800   -0.71963400
| 27> C      -3.67697300   -2.43641800   -0.09043100
| 28> C      -2.68962500   -1.64062400    0.84030800
| 29> O      -1.42831300   -1.68351300    0.16370800
| 30> C      -2.54783900   -2.38560600    2.11845900
| 31> N      -2.37848500   -3.04530200    3.05837000
| 32> C      -3.06490500   -0.22611400    1.13430700
| 33> C      -3.21410800    0.43381000    2.35515300
| 34> C      -3.51157800    1.78332000    2.10462900
| 35> C      -3.53400000    1.94478400    0.72071100
| 36> N      -3.27339000    0.69750000    0.14708700
| 37> N      -3.24767500    0.46046100   -1.19526100
| 38> C      -3.47110900    1.53172200   -1.91744500
| 39> N      -3.68581400    2.80519200   -1.51236000
| 40> C      -3.69974000    3.01403900   -0.20208600
| 41> N      -3.91050500    4.28032100    0.25101700
| 42> O      -4.77073700   -2.99785300    0.56920000
| 43> O      -2.67731200   -4.64938200    0.09285700
| 44> O      -0.06727400    0.54333100   -1.54249700
| 45> C      -0.12138600    1.56720200   -0.60166600
| 46> C      -0.07193400    1.30925100    0.76591300
| 47> C      -0.19207100    2.37986700    1.65064400
| 48> C      -0.36258800    3.68277100    1.17937700
| 49> C      -0.42023600    3.91730200   -0.19544300
| 50> C      -0.30111900    2.85714100   -1.09298300
| 51> H       3.15698000    1.36418000    3.60472500
| 52> H       2.64913500    1.48361700    1.90493000
| 53> H       1.82424400    0.37092600    2.99070700
| 54> H       3.80683300   -1.06560800    3.18229900
| 55> H       3.40121400   -0.85310700    1.48834000
| 56> H       5.49100200    0.81688100    2.97501100
| 57> H       7.25181700   -0.58027900    1.99799600
| 58> H       6.24331400   -1.42368300    3.16042500
| 59> H       4.72100300    1.94914300    0.98273500
| 60> H       6.39095300    1.37044500    0.75711600
| 61> H       6.09396600   -1.77399400    0.11005500
| 62> H       6.75383100   -2.92521500    1.28618000
| 63> H       5.02045900   -2.57496800    1.26035700
| 64> H       3.76911500   -1.28007000   -1.70595500
| 65> H       4.39769000   -0.72601700   -4.05599700
| 66> H       4.42856500    1.00466800   -3.64938300
| 67> H       5.60367000   -0.09559300   -2.90435600
| 68> H       2.01350900    0.63801300   -3.10206800
| 69> H      -1.83762000   -1.23405900   -2.31359300
| 70> H      -1.40724000   -2.83800800   -2.98773100
| 71> H      -0.55767400   -3.39605400   -0.60272700
| 72> H      -3.10576500   -3.82235500   -1.68693400
| 73> H      -4.03822400   -1.73892600   -0.84724300
| 74> H      -2.15205300   -4.46227800    0.89028400
| 75> H      -4.48009100   -3.88733300    0.84860400
| 76> H      -3.10843100   -0.03859600    3.32154600
| 77> H      -3.68579100    2.55476900    2.84085400
| 78> H      -3.46414700    1.36179500   -2.99003500
| 79> H      -3.82762500    4.99955000   -0.45594400
| 80> H      -3.54601600    4.51745000    1.16281500
| 81> H       0.06169900    0.29438300    1.11426500
| 82> H      -0.35137900    3.01444700   -2.16480400
| 83> H      -0.15274000    2.18737800    2.71813600
| 84> H      -0.44397800    4.50993500    1.87950500
| 85> H      -0.55387700    4.92600700   -0.57613800
| 86> *
| 87> 
| 88>                          ****END OF INPUT****
================================================================================

                       ****************************
                       * Single Point Calculation *
                       ****************************

---------------------------------
CARTESIAN COORDINATES (ANGSTROEM)
---------------------------------
  C      2.802741    0.791626    2.737227
  C      3.780968   -0.326270    2.370368
  C      5.222721    0.158697    2.132343
  C      6.245854   -0.997815    2.147975
  C      6.013716   -2.130100    1.139915
  C      5.351269    1.062200    0.903647
  O      4.984392    0.349507   -0.303509
  C      3.858318    0.701291   -0.945517
  O      3.162038    1.657413   -0.681619
  C      3.598420   -0.274714   -2.096928
  C      4.570825   -0.007134   -3.250657
  N      2.222598   -0.201552   -2.572132
  P      0.999731   -0.687567   -1.544667
  O      1.501722   -1.210441   -0.252587
  O      0.175809   -1.719391   -2.467737
  C     -1.184321   -2.104230   -2.208971
  C     -1.397187   -2.731800   -0.833141
  C     -2.732786   -3.478808   -0.719634
  C     -3.676973   -2.436418   -0.090431
  C     -2.689625   -1.640624    0.840308
  O     -1.428313   -1.683513    0.163708
  C     -2.547839   -2.385606    2.118459
  N     -2.378485   -3.045302    3.058370
  C     -3.064905   -0.226114    1.134307
  C     -3.214108    0.433810    2.355153
  C     -3.511578    1.783320    2.104629
  C     -3.534000    1.944784    0.720711
  N     -3.273390    0.697500    0.147087
  N     -3.247675    0.460461   -1.195261
  C     -3.471109    1.531722   -1.917445
  N     -3.685814    2.805192   -1.512360
  C     -3.699740    3.014039   -0.202086
  N     -3.910505    4.280321    0.251017
  O     -4.770737   -2.997853    0.569200
  O     -2.677312   -4.649382    0.092857
  O     -0.067274    0.543331   -1.542497
  C     -0.121386    1.567202   -0.601666
  C     -0.071934    1.309251    0.765913
  C     -0.192071    2.379867    1.650644
  C     -0.362588    3.682771    1.179377
  C     -0.420236    3.917302   -0.195443
  C     -0.301119    2.857141   -1.092983
  H      3.156980    1.364180    3.604725
  H      2.649135    1.483617    1.904930
  H      1.824244    0.370926    2.990707
  H      3.806833   -1.065608    3.182299
  H      3.401214   -0.853107    1.488340
  H      5.491002    0.816881    2.975011
  H      7.251817   -0.580279    1.997996
  H      6.243314   -1.423683    3.160425
  H      4.721003    1.949143    0.982735
  H      6.390953    1.370445    0.757116
  H      6.093966   -1.773994    0.110055
  H      6.753831   -2.925215    1.286180
  H      5.020459   -2.574968    1.260357
  H      3.769115   -1.280070   -1.705955
  H      4.397690   -0.726017   -4.055997
  H      4.428565    1.004668   -3.649383
  H      5.603670   -0.095593   -2.904356
  H      2.013509    0.638013   -3.102068
  H     -1.837620   -1.234059   -2.313593
  H     -1.407240   -2.838008   -2.987731
  H     -0.557674   -3.396054   -0.602727
  H     -3.105765   -3.822355   -1.686934
  H     -4.038224   -1.738926   -0.847243
  H     -2.152053   -4.462278    0.890284
  H     -4.480091   -3.887333    0.848604
  H     -3.108431   -0.038596    3.321546
  H     -3.685791    2.554769    2.840854
  H     -3.464147    1.361795   -2.990035
  H     -3.827625    4.999550   -0.455944
  H     -3.546016    4.517450    1.162815
  H      0.061699    0.294383    1.114265
  H     -0.351379    3.014447   -2.164804
  H     -0.152740    2.187378    2.718136
  H     -0.443978    4.509935    1.879505
  H     -0.553877    4.926007   -0.576138

----------------------------
CARTESIAN COORDINATES (A.U.)
----------------------------
  NO LB      ZA    FRAG     MASS         X           Y           Z
   0 C     6.0000    0    12.011    5.296413    1.495956    5.172609
   1 C     6.0000    0    12.011    7.144994   -0.616561    4.479346
   2 C     6.0000    0    12.011    9.869512    0.299894    4.029544
   3 C     6.0000    0    12.011   11.802954   -1.885597    4.059084
   4 C     6.0000    0    12.011   11.364276   -4.025306    2.154127
   5 C     6.0000    0    12.011   10.112433    2.007267    1.707645
   6 O     8.0000    0    15.999    9.419136    0.660473   -0.573549
   7 C     6.0000    0    12.011    7.291164    1.325248   -1.786768
   8 O     8.0000    0    15.999    5.975386    3.132057   -1.288073
   9 C     6.0000    0    12.011    6.800028   -0.519134   -3.962620
  10 C     6.0000    0    12.011    8.637607   -0.013481   -6.142851
  11 N     7.0000    0    14.007    4.200102   -0.380878   -4.860625
  12 P    15.0000    0    30.974    1.889218   -1.299313   -2.918998
  13 O     8.0000    0    15.999    2.837843   -2.287402   -0.477320
  14 O     8.0000    0    15.999    0.332231   -3.249178   -4.663347
  15 C     6.0000    0    12.011   -2.238042   -3.976418   -4.174350
  16 C     6.0000    0    12.011   -2.640301   -5.162354   -1.574408
  17 C     6.0000    0    12.011   -5.164217   -6.573994   -1.359911
  18 C     6.0000    0    12.011   -6.948472   -4.604163   -0.170890
  19 C     6.0000    0    12.011   -5.082655   -3.100330    1.587952
  20 O     8.0000    0    15.999   -2.699120   -3.181379    0.309363
  21 C     6.0000    0    12.011   -4.814718   -4.508142    4.003307
  22 N     7.0000    0    14.007   -4.494685   -5.754787    5.779482
  23 C     6.0000    0    12.011   -5.791831   -0.427294    2.143530
  24 C     6.0000    0    12.011   -6.073784    0.819782    4.450594
  25 C     6.0000    0    12.011   -6.635921    3.369986    3.977172
  26 C     6.0000    0    12.011   -6.678292    3.675109    1.361946
  27 N     7.0000    0    14.007   -6.185811    1.318084    0.277954
  28 N     7.0000    0    14.007   -6.137216    0.870145   -2.258716
  29 C     6.0000    0    12.011   -6.559445    2.894535   -3.623446
  30 N     7.0000    0    14.007   -6.965179    5.301045   -2.857946
  31 C     6.0000    0    12.011   -6.991495    5.695708   -0.381887
  32 N     7.0000    0    14.007   -7.389783    8.088634    0.474353
  33 O     8.0000    0    15.999   -9.015386   -5.665121    1.075632
  34 O     8.0000    0    15.999   -5.059386   -8.786059    0.175474
  35 O     8.0000    0    15.999   -0.127129    1.026747   -2.914897
  36 C     6.0000    0    12.011   -0.229386    2.961583   -1.136984
  37 C     6.0000    0    12.011   -0.135936    2.474126    1.447366
  38 C     6.0000    0    12.011   -0.362962    4.497297    3.119265
  39 C     6.0000    0    12.011   -0.685192    6.959429    2.228700
  40 C     6.0000    0    12.011   -0.794131    7.402628   -0.369334
  41 C     6.0000    0    12.011   -0.569032    5.399214   -2.065439
  42 H     1.0000    0     1.008    5.965828    2.577927    6.811943
  43 H     1.0000    0     1.008    5.006140    2.803630    3.599796
  44 H     1.0000    0     1.008    3.447322    0.700949    5.651617
  45 H     1.0000    0     1.008    7.193872   -2.013707    6.013674
  46 H     1.0000    0     1.008    6.427363   -1.612139    2.812555
  47 H     1.0000    0     1.008   10.376490    1.543681    5.621956
  48 H     1.0000    0     1.008   13.703948   -1.096568    3.775665
  49 H     1.0000    0     1.008   11.798154   -2.690371    5.972338
  50 H     1.0000    0     1.008    8.921403    3.683346    1.857100
  51 H     1.0000    0     1.008   12.077151    2.589766    1.430742
  52 H     1.0000    0     1.008   11.515927   -3.352363    0.207974
  53 H     1.0000    0     1.008   12.762891   -5.527855    2.430528
  54 H     1.0000    0     1.008    9.487293   -4.865984    2.381730
  55 H     1.0000    0     1.008    7.122595   -2.418982   -3.223788
  56 H     1.0000    0     1.008    8.310430   -1.371973   -7.664724
  57 H     1.0000    0     1.008    8.368775    1.898547   -6.896334
  58 H     1.0000    0     1.008   10.589402   -0.180645   -5.488437
  59 H     1.0000    0     1.008    3.804981    1.205670   -5.862059
  60 H     1.0000    0     1.008   -3.472599   -2.332034   -4.372057
  61 H     1.0000    0     1.008   -2.659298   -5.363058   -5.645993
  62 H     1.0000    0     1.008   -1.053851   -6.417612   -1.138989
  63 H     1.0000    0     1.008   -5.869045   -7.223204   -3.187843
  64 H     1.0000    0     1.008   -7.631137   -3.286094   -1.601057
  65 H     1.0000    0     1.008   -4.066791   -8.432483    1.682393
  66 H     1.0000    0     1.008   -8.466145   -7.345995    1.603629
  67 H     1.0000    0     1.008   -5.874083   -0.072936    6.276812
  68 H     1.0000    0     1.008   -6.965136    4.827814    5.368436
  69 H     1.0000    0     1.008   -6.546289    2.573420   -5.650347
  70 H     1.0000    0     1.008   -7.233163    9.447780   -0.861609
  71 H     1.0000    0     1.008   -6.700999    8.536743    2.197402
  72 H     1.0000    0     1.008    0.116594    0.556303    2.105656
  73 H     1.0000    0     1.008   -0.664010    5.696479   -4.090887
  74 H     1.0000    0     1.008   -0.288637    4.133545    5.136533
  75 H     1.0000    0     1.008   -0.838997    8.522542    3.551750
  76 H     1.0000    0     1.008   -1.046676    9.308804   -1.088743



           ************************************************************
           *        Program running with 36 parallel MPI-processes    *
           *              working on a common directory               *
           ************************************************************
 One Electron integrals                  ... done
 Pre-screening matrix                    ... done


           ************************************************************
           *        Program running with 36 parallel MPI-processes    *
           *              working on a common directory               *
           ************************************************************

Diagonalization of the overlap matrix:
Smallest eigenvalue                        ... 3.515e-06
Time for diagonalization                   ...    1.909 sec
Threshold for overlap eigenvalues          ... 1.000e-08
Number of eigenvalues below threshold      ... 0
Time for construction of square roots      ...    2.236 sec
Total time needed                          ...    4.203 sec

-------------------
DFT GRID GENERATION
-------------------

General Integration Accuracy     IntAcc      ...  4.670
Radial Grid Type                 RadialGrid  ... Gauss-Chebyshev
Angular Grid (max. acc.)         AngularGrid ... Lebedev-302
Angular grid pruning method      GridPruning ... 3 (G Style)
Weight generation scheme         WeightScheme... Becke
Basis function cutoff            BFCut       ...    1.0000e-11
Integration weight cutoff        WCut        ...    1.0000e-14
Grids for H and He will be reduced by one unit

# of grid points (after initial pruning)     ... 380328 (   0.0 sec)
# of grid points (after weights+screening)   ... 318226 (   0.8 sec)
nearest neighbour list constructed           ...    0.0 sec
Grid point re-assignment to atoms done       ...    0.1 sec
Grid point division into batches done        ...    1.1 sec
Reduced shell lists constructed in    1.8 sec

Total number of grid points                  ...   318226
Total number of batches                      ...     5012
Average number of points per batch           ...       63
Average number of grid points per atom       ...     4133
Average number of shells per batch           ...   308.13 (28.82%)
Average number of basis functions per batch  ...   892.44 (25.82%)
Average number of large shells per batch     ...   185.99 (60.36%)
Average number of large basis fcns per batch ...   546.35 (61.22%)
Maximum spatial batch extension              ...   2.72,  3.96,  3.10 au
Average spatial batch extension              ...   0.03,  0.03,  0.03 au

Time for grid setup =    3.205 sec

Loading Hartree-Fock densities                     ... done
Calculating cut-offs                               ... done
Setting up the integral package                    ... done
Initializing the effective Hamiltonian             ... done
Starting the Coulomb interaction                   ... done (   1.7 sec)
Reading the grid                                   ... done
Mapping shells                                     ... done
Starting the XC term evaluation                    ... done (   2.7 sec)
  promolecular density results
     # of electrons  =    317.982644812
     EX              =   -277.742680127
     EC              =    -20.761771840
     EX+EC           =   -298.504451968
Transforming the Hamiltonian                       ... done (   1.5 sec)
Diagonalizing the Hamiltonian                      ... done (   2.2 sec)
Back transforming the eigenvectors                 ... done (   0.8 sec)
Now organizing SCF variables                       ... done
--------------------
COSX GRID GENERATION
--------------------

General Integration Accuracy     IntAcc      ...  3.340
Radial Grid Type                 RadialGrid  ... Gauss-Chebyshev
Angular Grid (max. acc.)         AngularGrid ... Lebedev-50
Angular grid pruning method      GridPruning ... 3 (G Style)
Weight generation scheme         WeightScheme... Becke
Basis function cutoff            BFCut       ...    1.0000e-11
Integration weight cutoff        WCut        ...    1.0000e-14
Grids for H and He will be reduced by one unit

# of grid points (after initial pruning)     ...  35602 (   0.0 sec)
# of grid points (after weights+screening)   ...  31154 (   0.1 sec)
nearest neighbour list constructed           ...    0.0 sec
Grid point re-assignment to atoms done       ...    0.0 sec
Grid point division into batches done        ...    0.0 sec
Reduced shell lists constructed in    0.1 sec

Total number of grid points                  ...    31154
Total number of batches                      ...      530
Average number of points per batch           ...       58
Average number of grid points per atom       ...      405
Average number of shells per batch           ...   328.94 (30.77%)
Average number of basis functions per batch  ...   965.31 (27.92%)
Average number of large shells per batch     ...   194.94 (59.26%)
Average number of large basis fcns per batch ...   577.81 (59.86%)
Maximum spatial batch extension              ...   2.74,  2.89,  2.84 au
Average spatial batch extension              ...   0.05,  0.05,  0.05 au

Overlap Fitting                  UseSFitting ... on
Constructing numerical overlap ... done (      0.7 sec)
Inverting numerical overlap    ... done (      0.8 sec)
Obtaining analytic overlap     ... done (      0.1 sec)
Final contraction and storage  ... done (      3.3 sec)


General Integration Accuracy     IntAcc      ...  4.010
Radial Grid Type                 RadialGrid  ... Gauss-Chebyshev
Angular Grid (max. acc.)         AngularGrid ... Lebedev-50
Angular grid pruning method      GridPruning ... 3 (G Style)
Weight generation scheme         WeightScheme... Becke
Basis function cutoff            BFCut       ...    1.0000e-11
Integration weight cutoff        WCut        ...    1.0000e-14
Grids for H and He will be reduced by one unit

# of grid points (after initial pruning)     ...  54842 (   0.0 sec)
# of grid points (after weights+screening)   ...  47668 (   0.1 sec)
nearest neighbour list constructed           ...    0.0 sec
Grid point re-assignment to atoms done       ...    0.0 sec
Grid point division into batches done        ...    0.0 sec
Reduced shell lists constructed in    0.1 sec

Total number of grid points                  ...    47668
Total number of batches                      ...      788
Average number of points per batch           ...       60
Average number of grid points per atom       ...      619
Average number of shells per batch           ...   324.74 (30.38%)
Average number of basis functions per batch  ...   946.22 (27.37%)
Average number of large shells per batch     ...   193.35 (59.54%)
Average number of large basis fcns per batch ...   570.48 (60.29%)
Maximum spatial batch extension              ...   2.49,  2.38,  2.79 au
Average spatial batch extension              ...   0.05,  0.04,  0.05 au

Overlap Fitting                  UseSFitting ... on
Constructing numerical overlap ... done (      0.9 sec)
Inverting numerical overlap    ... done (      0.8 sec)
Obtaining analytic overlap     ... done (      0.1 sec)
Final contraction and storage  ... done (      3.3 sec)


General Integration Accuracy     IntAcc      ...  4.340
Radial Grid Type                 RadialGrid  ... Gauss-Chebyshev
Angular Grid (max. acc.)         AngularGrid ... Lebedev-194
Angular grid pruning method      GridPruning ... 3 (G Style)
Weight generation scheme         WeightScheme... Becke
Basis function cutoff            BFCut       ...    1.0000e-11
Integration weight cutoff        WCut        ...    1.0000e-14
Grids for H and He will be reduced by one unit

# of grid points (after initial pruning)     ... 192412 (   0.0 sec)
# of grid points (after weights+screening)   ... 163494 (   0.5 sec)
nearest neighbour list constructed           ...    0.0 sec
Grid point re-assignment to atoms done       ...    0.1 sec
Grid point division into batches done        ...    0.3 sec
Reduced shell lists constructed in    0.6 sec

Total number of grid points                  ...   163494
Total number of batches                      ...     2590
Average number of points per batch           ...       63
Average number of grid points per atom       ...     2123
Average number of shells per batch           ...   315.48 (29.51%)
Average number of basis functions per batch  ...   914.79 (26.46%)
Average number of large shells per batch     ...   190.41 (60.36%)
Average number of large basis fcns per batch ...   560.85 (61.31%)
Maximum spatial batch extension              ...   2.40,  2.31,  2.66 au
Average spatial batch extension              ...   0.03,  0.04,  0.03 au

Overlap Fitting                  UseSFitting ... on
Constructing numerical overlap ... done (      2.0 sec)
Inverting numerical overlap    ... done (      0.8 sec)
Obtaining analytic overlap     ... done (      0.1 sec)
Final contraction and storage  ... done (      3.3 sec)

Time for X-Grid setup             =   18.939 sec

--------------------
CPCM SOLVATION MODEL
--------------------
CPCM parameters:
  Epsilon                                         ...      78.3550
  Refrac                                          ...       1.0000
  Rsolv                                           ...       1.3000
  Surface type                                    ...    GEPOL SES
  Epsilon function type                           ...         CPCM
Solvent:                                     ... WATER
SMD-CDS solvent descriptors:
  Soln                                       ...    1.3328
  Soln25                                     ...    1.3323
  Sola                                       ...    0.0000
  Solb                                       ...    0.0000
  Solg                                       ...    0.0000
  Solc                                       ...    0.0000
  Solh                                       ...    0.0000
Radii:
 Radius for C  used is    3.4960 Bohr (=   1.8500 Ang.)
 Radius for O  used is    2.8724 Bohr (=   1.5200 Ang.)
 Radius for N  used is    3.5716 Bohr (=   1.8900 Ang.)
 Radius for P  used is    4.0062 Bohr (=   2.1200 Ang.)
 Radius for H  used is    2.2677 Bohr (=   1.2000 Ang.)
Calculating surface                               ...        done! (  0.9s)
GEPOL surface points                              ...         2978
GEPOL Volume                                      ...    4150.1449
GEPOL Surface-area                                ...    1766.9103
Calculating surface distance matrix               ...        done! (  0.2s)
Performing Cholesky decomposition & store         ...        done! (  0.6s)
Overall time for CPCM initialization              ...                 1.7s
--------------
SCF ITERATIONS
--------------
ITER       Energy         Delta-E        Max-DP      RMS-DP      [F,P]     Damp
               ***  Starting incremental Fock matrix formation  ***
  0  -2317.5554853993   0.000000000000 0.06149990  0.00025137  0.4609103 0.7000
  1  -2318.2992701542  -0.743784754845 0.07307091  0.00020142  0.2101918 0.7000
                               ***Turning on DIIS***
  2  -2318.6439561882  -0.344686034074 0.15187929  0.00045172  0.0794474 0.0000
  3  -2319.2198013119  -0.575845123637 0.05929964  0.00010742  0.0980625 0.0000
  4  -2319.3070809378  -0.087279625927 0.02116254  0.00004132  0.0207523 0.0000
  5  -2319.3099410163  -0.002860078476 0.00966936  0.00001695  0.0116096 0.0000
                      *** Initiating the SOSCF procedure ***
                           *** Shutting down DIIS ***
                      *** Re-Reading the Fockian *** 
                      *** Removing any level shift *** 
ITER      Energy       Delta-E        Grad      Rot      Max-DP    RMS-DP
  6  -2319.31043914  -0.0004981200  0.000361  0.000361  0.004126  0.000007
               *** Restarting incremental Fock matrix formation ***
  7  -2319.31054320  -0.0001040653  0.000277  0.001003  0.018895  0.000075
  8  -2319.31054791  -0.0000047058  0.000211  0.000584  0.009235  0.000028
  9  -2319.31054949  -0.0000015875  0.000104  0.000101  0.008260  0.000025
 10  -2319.31055215  -0.0000026510  0.000027  0.000054  0.001898  0.000006
 11  -2319.31055272  -0.0000005702  0.000019  0.000056  0.001540  0.000005
 12  -2319.31055243   0.0000002898  0.000004  0.000018  0.000178  0.000000
 13  -2319.31055310  -0.0000006724  0.000004  0.000007  0.000074  0.000000
                  ***Gradient check signals convergence***
              ***Rediagonalizing the Fockian in SOSCF/NRSCF***

               *****************************************************
               *                     SUCCESS                       *
               *           SCF CONVERGED AFTER  14 CYCLES          *
               *****************************************************

Setting up the final grid:

General Integration Accuracy     IntAcc      ...  5.010
Radial Grid Type                 RadialGrid  ... Gauss-Chebyshev
Angular Grid (max. acc.)         AngularGrid ... Lebedev-434
Angular grid pruning method      GridPruning ... 3 (G Style)
Weight generation scheme         WeightScheme... Becke
Basis function cutoff            BFCut       ...    1.0000e-11
Integration weight cutoff        WCut        ...    1.0000e-14
Grids for H and He will be reduced by one unit

# of grid points (after initial pruning)     ... 684974 (   0.0 sec)
# of grid points (after weights+screening)   ... 571500 (   1.4 sec)
nearest neighbour list constructed           ...    0.0 sec
Grid point re-assignment to atoms done       ...    0.2 sec
Grid point division into batches done        ...    3.7 sec
Reduced shell lists constructed in    4.9 sec

Total number of grid points                  ...   571500
Total number of batches                      ...     8970
Average number of points per batch           ...       63
Average number of grid points per atom       ...     7422
Average number of shells per batch           ...   299.43 (28.01%)
Average number of basis functions per batch  ...   862.01 (24.94%)
Average number of large shells per batch     ...   181.25 (60.53%)
Average number of large basis fcns per batch ...   529.62 (61.44%)
Maximum spatial batch extension              ...   1.94,  3.97,  3.00 au
Average spatial batch extension              ...   0.02,  0.02,  0.02 au

Final grid set up in    7.3 sec
Final integration                            ... done (  12.6 sec)
Change in XC energy                          ...     0.001620256
Integrated number of electrons               ...   318.000351027
Previous integrated no of electrons          ...   317.999588011
Old exchange energy                            =   -140.531242873 Eh
New exchange energy                            =   -140.530611197 Eh
Exchange energy change after final integration =      0.000631676 Eh
Total energy after final integration           =  -2319.308301410 Eh
Final COS-X integration done in                =   308.589 sec

SMD CDS free energy correction energy :                11.23949     Kcal/mol
Total Energy after SMD CDS correction =             -2319.290390148 Eh
Total Energy       :        -2319.29039015 Eh          -63111.10002 eV
  Last Energy change         ...   -2.4380e-07  Tolerance :   1.0000e-08
  Last MAX-Density change    ...    2.6645e-15  Tolerance :   1.0000e-07
             **** THE GBW FILE WAS UPDATED (orcaSP.gbw) ****
             **** DENSITY FILE WAS UPDATED (orcaSP.scfp) ****
             **** ENERGY FILE WAS UPDATED (orcaSP.en.tmp) ****
             **** THE GBW FILE WAS UPDATED (orcaSP.gbw) ****
             **** DENSITY FILE WAS UPDATED (orcaSP.scfp) ****
----------------
ORBITAL ENERGIES
----------------

  NO   OCC          E(Eh)            E(eV) 
   0   2.0000     -78.282202     -2130.1670 
   1   2.0000     -19.709685      -536.3278 
   2   2.0000     -19.709604      -536.3256 
   3   2.0000     -19.703144      -536.1498 
   4   2.0000     -19.699772      -536.0580 
   5   2.0000     -19.692952      -535.8725 
   6   2.0000     -19.689245      -535.7716 
   7   2.0000     -19.662253      -535.0371 
   8   2.0000     -19.636788      -534.3442 
   9   2.0000     -14.895755      -405.3341 
  10   2.0000     -14.825679      -403.4272 
  11   2.0000     -14.815956      -403.1626 
  12   2.0000     -14.807868      -402.9426 
  13   2.0000     -14.795912      -402.6172 
  14   2.0000     -14.785858      -402.3437 
  15   2.0000     -10.710228      -291.4401 
  16   2.0000     -10.698709      -291.1267 
  17   2.0000     -10.681200      -290.6502 
  18   2.0000     -10.647191      -289.7248 
  19   2.0000     -10.644801      -289.6598 
  20   2.0000     -10.643778      -289.6319 
  21   2.0000     -10.641357      -289.5660 
  22   2.0000     -10.640345      -289.5385 
  23   2.0000     -10.637500      -289.4611 
  24   2.0000     -10.632457      -289.3239 
  25   2.0000     -10.625251      -289.1278 
  26   2.0000     -10.625082      -289.1232 
  27   2.0000     -10.620818      -289.0072 
  28   2.0000     -10.614748      -288.8420 
  29   2.0000     -10.580584      -287.9123 
  30   2.0000     -10.577277      -287.8223 
  31   2.0000     -10.573098      -287.7086 
  32   2.0000     -10.572046      -287.6800 
  33   2.0000     -10.570055      -287.6258 
  34   2.0000     -10.567323      -287.5515 
  35   2.0000     -10.567056      -287.5442 
  36   2.0000     -10.565495      -287.5017 
  37   2.0000     -10.563746      -287.4541 
  38   2.0000     -10.554568      -287.2044 
  39   2.0000     -10.550018      -287.0806 
  40   2.0000     -10.542763      -286.8832 
  41   2.0000     -10.540784      -286.8293 
  42   2.0000      -7.006623      -190.6599 
  43   2.0000      -5.074440      -138.0825 
  44   2.0000      -5.072987      -138.0430 
  45   2.0000      -5.071558      -138.0041 
  46   2.0000      -1.234318       -33.5875 
  47   2.0000      -1.219835       -33.1934 
  48   2.0000      -1.207932       -32.8695 
  49   2.0000      -1.187106       -32.3028 
  50   2.0000      -1.179120       -32.0855 
  51   2.0000      -1.169546       -31.8250 
  52   2.0000      -1.158980       -31.5375 
  53   2.0000      -1.148962       -31.2648 
  54   2.0000      -1.103610       -30.0308 
  55   2.0000      -1.087403       -29.5897 
  56   2.0000      -1.045731       -28.4558 
  57   2.0000      -1.036032       -28.1919 
  58   2.0000      -1.025226       -27.8978 
  59   2.0000      -0.979733       -26.6599 
  60   2.0000      -0.958799       -26.0903 
  61   2.0000      -0.920514       -25.0484 
  62   2.0000      -0.913356       -24.8537 
  63   2.0000      -0.893636       -24.3171 
  64   2.0000      -0.871684       -23.7197 
  65   2.0000      -0.867477       -23.6052 
  66   2.0000      -0.849229       -23.1087 
  67   2.0000      -0.844763       -22.9872 
  68   2.0000      -0.839070       -22.8322 
  69   2.0000      -0.834673       -22.7126 
  70   2.0000      -0.812311       -22.1041 
  71   2.0000      -0.801922       -21.8214 
  72   2.0000      -0.754294       -20.5254 
  73   2.0000      -0.752572       -20.4785 
  74   2.0000      -0.741012       -20.1640 
  75   2.0000      -0.724022       -19.7016 
  76   2.0000      -0.712810       -19.3966 
  77   2.0000      -0.712319       -19.3832 
  78   2.0000      -0.706660       -19.2292 
  79   2.0000      -0.691751       -18.8235 
  80   2.0000      -0.686363       -18.6769 
  81   2.0000      -0.684424       -18.6241 
  82   2.0000      -0.660765       -17.9803 
  83   2.0000      -0.654616       -17.8130 
  84   2.0000      -0.647133       -17.6094 
  85   2.0000      -0.635438       -17.2911 
  86   2.0000      -0.622543       -16.9403 
  87   2.0000      -0.613210       -16.6863 
  88   2.0000      -0.607856       -16.5406 
  89   2.0000      -0.603326       -16.4173 
  90   2.0000      -0.595802       -16.2126 
  91   2.0000      -0.590198       -16.0601 
  92   2.0000      -0.578618       -15.7450 
  93   2.0000      -0.568258       -15.4631 
  94   2.0000      -0.566768       -15.4225 
  95   2.0000      -0.564566       -15.3626 
  96   2.0000      -0.560234       -15.2448 
  97   2.0000      -0.556163       -15.1340 
  98   2.0000      -0.550293       -14.9742 
  99   2.0000      -0.543409       -14.7869 
 100   2.0000      -0.540097       -14.6968 
 101   2.0000      -0.537291       -14.6204 
 102   2.0000      -0.526893       -14.3375 
 103   2.0000      -0.524168       -14.2633 
 104   2.0000      -0.522388       -14.2149 
 105   2.0000      -0.512631       -13.9494 
 106   2.0000      -0.511753       -13.9255 
 107   2.0000      -0.506801       -13.7907 
 108   2.0000      -0.504086       -13.7169 
 109   2.0000      -0.498460       -13.5638 
 110   2.0000      -0.495516       -13.4837 
 111   2.0000      -0.494485       -13.4556 
 112   2.0000      -0.491831       -13.3834 
 113   2.0000      -0.487166       -13.2565 
 114   2.0000      -0.481801       -13.1105 
 115   2.0000      -0.479205       -13.0398 
 116   2.0000      -0.472860       -12.8672 
 117   2.0000      -0.471489       -12.8299 
 118   2.0000      -0.468363       -12.7448 
 119   2.0000      -0.462276       -12.5792 
 120   2.0000      -0.459132       -12.4936 
 121   2.0000      -0.457815       -12.4578 
 122   2.0000      -0.448933       -12.2161 
 123   2.0000      -0.444438       -12.0938 
 124   2.0000      -0.438492       -11.9320 
 125   2.0000      -0.437987       -11.9182 
 126   2.0000      -0.435052       -11.8384 
 127   2.0000      -0.429715       -11.6931 
 128   2.0000      -0.428104       -11.6493 
 129   2.0000      -0.425533       -11.5793 
 130   2.0000      -0.422764       -11.5040 
 131   2.0000      -0.418212       -11.3801 
 132   2.0000      -0.416187       -11.3250 
 133   2.0000      -0.415480       -11.3058 
 134   2.0000      -0.413409       -11.2494 
 135   2.0000      -0.405044       -11.0218 
 136   2.0000      -0.403875       -10.9900 
 137   2.0000      -0.402208       -10.9446 
 138   2.0000      -0.398589       -10.8462 
 139   2.0000      -0.395410       -10.7596 
 140   2.0000      -0.390328       -10.6214 
 141   2.0000      -0.384603       -10.4656 
 142   2.0000      -0.383005       -10.4221 
 143   2.0000      -0.380755       -10.3609 
 144   2.0000      -0.376085       -10.2338 
 145   2.0000      -0.372227       -10.1288 
 146   2.0000      -0.362480        -9.8636 
 147   2.0000      -0.358634        -9.7589 
 148   2.0000      -0.350624        -9.5410 
 149   2.0000      -0.350327        -9.5329 
 150   2.0000      -0.348642        -9.4870 
 151   2.0000      -0.344534        -9.3752 
 152   2.0000      -0.337657        -9.1881 
 153   2.0000      -0.332772        -9.0552 
 154   2.0000      -0.325048        -8.8450 
 155   2.0000      -0.288568        -7.8523 
 156   2.0000      -0.281649        -7.6641 
 157   2.0000      -0.278098        -7.5674 
 158   2.0000      -0.255903        -6.9635 
 159   0.0000      -0.007793        -0.2121 
 160   0.0000       0.020427         0.5558 
 161   0.0000       0.032267         0.8780 
 162   0.0000       0.039678         1.0797 
 163   0.0000       0.044356         1.2070 
 164   0.0000       0.048291         1.3141 
 165   0.0000       0.049959         1.3595 
 166   0.0000       0.053771         1.4632 
 167   0.0000       0.055313         1.5051 
 168   0.0000       0.057626         1.5681 
 169   0.0000       0.060526         1.6470 
 170   0.0000       0.066624         1.8129 
 171   0.0000       0.069552         1.8926 
 172   0.0000       0.071368         1.9420 
 173   0.0000       0.077594         2.1114 
 174   0.0000       0.079930         2.1750 
 175   0.0000       0.085335         2.3221 
 176   0.0000       0.087176         2.3722 
 177   0.0000       0.089006         2.4220 
 178   0.0000       0.090424         2.4606 
 179   0.0000       0.092868         2.5271 
 180   0.0000       0.097017         2.6400 
 181   0.0000       0.100121         2.7244 
 182   0.0000       0.103425         2.8144 
 183   0.0000       0.105562         2.8725 
 184   0.0000       0.108518         2.9529 
 185   0.0000       0.108726         2.9586 
 186   0.0000       0.112073         3.0497 
 187   0.0000       0.117229         3.1900 
 188   0.0000       0.119449         3.2504 
 189   0.0000       0.123684         3.3656 
 190   0.0000       0.126512         3.4426 
 191   0.0000       0.129332         3.5193 
 192   0.0000       0.131520         3.5788 
 193   0.0000       0.132698         3.6109 
 194   0.0000       0.134572         3.6619 
 195   0.0000       0.137143         3.7319 
 196   0.0000       0.139510         3.7963 
 197   0.0000       0.141830         3.8594 
 198   0.0000       0.144549         3.9334 
 199   0.0000       0.147668         4.0183 
 200   0.0000       0.150745         4.1020 
 201   0.0000       0.152377         4.1464 
 202   0.0000       0.157995         4.2993 
 203   0.0000       0.160657         4.3717 
 204   0.0000       0.162229         4.4145 
 205   0.0000       0.162933         4.4336 
 206   0.0000       0.168825         4.5940 
 207   0.0000       0.172210         4.6861 
 208   0.0000       0.172757         4.7010 
 209   0.0000       0.174390         4.7454 
 210   0.0000       0.176406         4.8002 
 211   0.0000       0.179704         4.8900 
 212   0.0000       0.182131         4.9560 
 213   0.0000       0.183171         4.9843 
 214   0.0000       0.187593         5.1047 
 215   0.0000       0.190201         5.1756 
 216   0.0000       0.192776         5.2457 
 217   0.0000       0.195237         5.3127 
 218   0.0000       0.196791         5.3550 
 219   0.0000       0.197539         5.3753 
 220   0.0000       0.198059         5.3895 
 221   0.0000       0.198686         5.4065 
 222   0.0000       0.202051         5.4981 
 223   0.0000       0.204133         5.5547 
 224   0.0000       0.206408         5.6166 
 225   0.0000       0.208844         5.6829 
 226   0.0000       0.210213         5.7202 
 227   0.0000       0.212895         5.7932 
 228   0.0000       0.216917         5.9026 
 229   0.0000       0.219237         5.9657 
 230   0.0000       0.223291         6.0761 
 231   0.0000       0.225511         6.1365 
 232   0.0000       0.227288         6.1848 
 233   0.0000       0.230510         6.2725 
 234   0.0000       0.232236         6.3195 
 235   0.0000       0.236334         6.4310 
 236   0.0000       0.238593         6.4924 
 237   0.0000       0.239676         6.5219 
 238   0.0000       0.240893         6.5550 
 239   0.0000       0.245387         6.6773 
 240   0.0000       0.249206         6.7812 
 241   0.0000       0.250261         6.8100 
 242   0.0000       0.253567         6.8999 
 243   0.0000       0.254351         6.9212 
 244   0.0000       0.257134         6.9970 
 245   0.0000       0.258762         7.0413 
 246   0.0000       0.261543         7.1170 
 247   0.0000       0.263520         7.1707 
 248   0.0000       0.265309         7.2194 
 249   0.0000       0.270025         7.3478 
 250   0.0000       0.273283         7.4364 
 251   0.0000       0.274505         7.4697 
 252   0.0000       0.276088         7.5127 
 253   0.0000       0.276925         7.5355 
 254   0.0000       0.277417         7.5489 
 255   0.0000       0.280504         7.6329 
 256   0.0000       0.283450         7.7131 
 257   0.0000       0.286886         7.8066 
 258   0.0000       0.287773         7.8307 
 259   0.0000       0.289654         7.8819 
 260   0.0000       0.292147         7.9497 
 261   0.0000       0.295112         8.0304 
 262   0.0000       0.300403         8.1744 
 263   0.0000       0.301080         8.1928 
 264   0.0000       0.301943         8.2163 
 265   0.0000       0.305008         8.2997 
 266   0.0000       0.307477         8.3669 
 267   0.0000       0.307770         8.3749 
 268   0.0000       0.309329         8.4173 
 269   0.0000       0.312539         8.5046 
 270   0.0000       0.314313         8.5529 
 271   0.0000       0.316720         8.6184 
 272   0.0000       0.318508         8.6671 
 273   0.0000       0.321426         8.7464 
 274   0.0000       0.324050         8.8179 
 275   0.0000       0.325295         8.8517 
 276   0.0000       0.326371         8.8810 
 277   0.0000       0.327364         8.9080 
 278   0.0000       0.330363         8.9896 
 279   0.0000       0.331650         9.0246 
 280   0.0000       0.332735         9.0542 
 281   0.0000       0.334835         9.1113 
 282   0.0000       0.336045         9.1442 
 283   0.0000       0.337570         9.1857 
 284   0.0000       0.338821         9.2198 
 285   0.0000       0.341174         9.2838 
 286   0.0000       0.344253         9.3676 
 287   0.0000       0.344457         9.3731 
 288   0.0000       0.348291         9.4775 
 289   0.0000       0.349447         9.5089 
 290   0.0000       0.351072         9.5531 
 291   0.0000       0.352036         9.5794 
 292   0.0000       0.355013         9.6604 
 293   0.0000       0.355748         9.6804 
 294   0.0000       0.358086         9.7440 
 295   0.0000       0.360602         9.8125 
 296   0.0000       0.361539         9.8380 
 297   0.0000       0.361704         9.8425 
 298   0.0000       0.366245         9.9660 
 299   0.0000       0.367696        10.0055 
 300   0.0000       0.368563        10.0291 
 301   0.0000       0.370891        10.0925 
 302   0.0000       0.372105        10.1255 
 303   0.0000       0.373559        10.1651 
 304   0.0000       0.376135        10.2351 
 305   0.0000       0.377179        10.2636 
 306   0.0000       0.379180        10.3180 
 307   0.0000       0.381659        10.3855 
 308   0.0000       0.382307        10.4031 
 309   0.0000       0.384413        10.4604 
 310   0.0000       0.386772        10.5246 
 311   0.0000       0.387622        10.5477 
 312   0.0000       0.389596        10.6014 
 313   0.0000       0.391432        10.6514 
 314   0.0000       0.392947        10.6926 
 315   0.0000       0.395005        10.7486 
 316   0.0000       0.397027        10.8037 
 317   0.0000       0.400063        10.8863 
 318   0.0000       0.401576        10.9274 
 319   0.0000       0.403035        10.9671 
 320   0.0000       0.405448        11.0328 
 321   0.0000       0.406234        11.0542 
 322   0.0000       0.409020        11.1300 
 323   0.0000       0.410697        11.1756 
 324   0.0000       0.413207        11.2439 
 325   0.0000       0.415465        11.3054 
 326   0.0000       0.416353        11.3296 
 327   0.0000       0.419836        11.4243 
 328   0.0000       0.420822        11.4511 
 329   0.0000       0.422862        11.5067 
 330   0.0000       0.424323        11.5464 
 331   0.0000       0.426442        11.6041 
 332   0.0000       0.428784        11.6678 
 333   0.0000       0.431002        11.7282 
 334   0.0000       0.433916        11.8074 
 335   0.0000       0.435553        11.8520 
 336   0.0000       0.436914        11.8890 
 337   0.0000       0.441046        12.0015 
 338   0.0000       0.442571        12.0430 
 339   0.0000       0.445270        12.1164 
 340   0.0000       0.446624        12.1533 
 341   0.0000       0.451716        12.2918 
 342   0.0000       0.453050        12.3281 
 343   0.0000       0.456071        12.4103 
 344   0.0000       0.457696        12.4545 
 345   0.0000       0.459741        12.5102 
 346   0.0000       0.461134        12.5481 
 347   0.0000       0.463183        12.6038 
 348   0.0000       0.465246        12.6600 
 349   0.0000       0.468462        12.7475 
 350   0.0000       0.469829        12.7847 
 351   0.0000       0.472175        12.8485 
 352   0.0000       0.473665        12.8891 
 353   0.0000       0.475416        12.9367 
 354   0.0000       0.476211        12.9584 
 355   0.0000       0.480107        13.0644 
 356   0.0000       0.481796        13.1103 
 357   0.0000       0.483570        13.1586 
 358   0.0000       0.488207        13.2848 
 359   0.0000       0.492260        13.3951 
 360   0.0000       0.493474        13.4281 
 361   0.0000       0.497095        13.5266 
 362   0.0000       0.498362        13.5611 
 363   0.0000       0.499997        13.6056 
 364   0.0000       0.501673        13.6512 
 365   0.0000       0.503889        13.7115 
 366   0.0000       0.505020        13.7423 
 367   0.0000       0.507753        13.8167 
 368   0.0000       0.513804        13.9813 
 369   0.0000       0.515023        14.0145 
 370   0.0000       0.517269        14.0756 
 371   0.0000       0.521288        14.1850 
 372   0.0000       0.524511        14.2727 
 373   0.0000       0.526165        14.3177 
 374   0.0000       0.529504        14.4085 
 375   0.0000       0.530068        14.4239 
 376   0.0000       0.533110        14.5067 
 377   0.0000       0.536196        14.5906 
 378   0.0000       0.538233        14.6461 
 379   0.0000       0.540565        14.7095 
 380   0.0000       0.543126        14.7792 
 381   0.0000       0.545239        14.8367 
 382   0.0000       0.548487        14.9251 
 383   0.0000       0.550745        14.9865 
 384   0.0000       0.552995        15.0478 
 385   0.0000       0.555990        15.1292 
 386   0.0000       0.559947        15.2369 
 387   0.0000       0.563102        15.3228 
 388   0.0000       0.563817        15.3422 
 389   0.0000       0.566733        15.4216 
 390   0.0000       0.569296        15.4913 
 391   0.0000       0.571301        15.5459 
 392   0.0000       0.573855        15.6154 
 393   0.0000       0.575389        15.6571 
 394   0.0000       0.577998        15.7281 
 395   0.0000       0.578854        15.7514 
 396   0.0000       0.580737        15.8027 
 397   0.0000       0.584120        15.8947 
 398   0.0000       0.585561        15.9339 
 399   0.0000       0.587830        15.9957 
 400   0.0000       0.590992        16.0817 
 401   0.0000       0.595273        16.1982 
 402   0.0000       0.597823        16.2676 
 403   0.0000       0.600086        16.3292 
 404   0.0000       0.602887        16.4054 
 405   0.0000       0.605025        16.4636 
 406   0.0000       0.605350        16.4724 
 407   0.0000       0.610281        16.6066 
 408   0.0000       0.611260        16.6332 
 409   0.0000       0.615167        16.7395 
 410   0.0000       0.616596        16.7784 
 411   0.0000       0.619643        16.8613 
 412   0.0000       0.620679        16.8895 
 413   0.0000       0.622817        16.9477 
 414   0.0000       0.624786        17.0013 
 415   0.0000       0.625345        17.0165 
 416   0.0000       0.628989        17.1157 
 417   0.0000       0.632824        17.2200 
 418   0.0000       0.634267        17.2593 
 419   0.0000       0.638212        17.3666 
 420   0.0000       0.641842        17.4654 
 421   0.0000       0.643758        17.5176 
 422   0.0000       0.644455        17.5365 
 423   0.0000       0.648909        17.6577 
 424   0.0000       0.652572        17.7574 
 425   0.0000       0.656883        17.8747 
 426   0.0000       0.657959        17.9040 
 427   0.0000       0.661314        17.9953 
 428   0.0000       0.662058        18.0155 
 429   0.0000       0.669788        18.2258 
 430   0.0000       0.670407        18.2427 
 431   0.0000       0.672369        18.2961 
 432   0.0000       0.675671        18.3859 
 433   0.0000       0.676281        18.4026 
 434   0.0000       0.679246        18.4832 
 435   0.0000       0.681499        18.5445 
 436   0.0000       0.682411        18.5693 
 437   0.0000       0.684029        18.6134 
 438   0.0000       0.689341        18.7579 
 439   0.0000       0.690890        18.8001 
 440   0.0000       0.692065        18.8321 
 441   0.0000       0.693663        18.8755 
 442   0.0000       0.696801        18.9609 
 443   0.0000       0.699635        19.0380 
 444   0.0000       0.702493        19.1158 
 445   0.0000       0.703593        19.1457 
 446   0.0000       0.706188        19.2163 
 447   0.0000       0.708882        19.2897 
 448   0.0000       0.713030        19.4025 
 449   0.0000       0.714313        19.4375 
 450   0.0000       0.720036        19.5932 
 451   0.0000       0.724404        19.7120 
 452   0.0000       0.726040        19.7566 
 453   0.0000       0.728932        19.8352 
 454   0.0000       0.731763        19.9123 
 455   0.0000       0.733394        19.9567 
 456   0.0000       0.734169        19.9778 
 457   0.0000       0.739653        20.1270 
 458   0.0000       0.743504        20.2318 
 459   0.0000       0.744245        20.2519 
 460   0.0000       0.745135        20.2762 
 461   0.0000       0.748884        20.3782 
 462   0.0000       0.750068        20.4104 
 463   0.0000       0.752752        20.4834 
 464   0.0000       0.754873        20.5412 
 465   0.0000       0.757675        20.6174 
 466   0.0000       0.759864        20.6770 
 467   0.0000       0.761896        20.7322 
 468   0.0000       0.766219        20.8499 
 469   0.0000       0.768961        20.9245 
 470   0.0000       0.769982        20.9523 
 471   0.0000       0.771874        21.0038 
 472   0.0000       0.774190        21.0668 
 473   0.0000       0.776192        21.1212 
 474   0.0000       0.780123        21.2282 
 475   0.0000       0.781628        21.2692 
 476   0.0000       0.782077        21.2814 
 477   0.0000       0.786260        21.3952 
 478   0.0000       0.788447        21.4547 
 479   0.0000       0.791205        21.5298 
 480   0.0000       0.795884        21.6571 
 481   0.0000       0.796796        21.6819 
 482   0.0000       0.799357        21.7516 
 483   0.0000       0.804347        21.8874 
 484   0.0000       0.806916        21.9573 
 485   0.0000       0.807563        21.9749 
 486   0.0000       0.809988        22.0409 
 487   0.0000       0.812101        22.0984 
 488   0.0000       0.818238        22.2654 
 489   0.0000       0.822044        22.3689 
 490   0.0000       0.823539        22.4096 
 491   0.0000       0.825693        22.4682 
 492   0.0000       0.828769        22.5519 
 493   0.0000       0.831052        22.6141 
 494   0.0000       0.833671        22.6853 
 495   0.0000       0.835269        22.7288 
 496   0.0000       0.836943        22.7744 
 497   0.0000       0.842882        22.9360 
 498   0.0000       0.843448        22.9514 
 499   0.0000       0.844527        22.9807 
 500   0.0000       0.848049        23.0766 
 501   0.0000       0.850628        23.1468 
 502   0.0000       0.853449        23.2235 
 503   0.0000       0.854386        23.2490 
 504   0.0000       0.857747        23.3405 
 505   0.0000       0.860407        23.4129 
 506   0.0000       0.861189        23.4341 
 507   0.0000       0.862243        23.4628 
 508   0.0000       0.866237        23.5715 
 509   0.0000       0.866616        23.5818 
 510   0.0000       0.869655        23.6645 
 511   0.0000       0.873888        23.7797 
 512   0.0000       0.875572        23.8255 
 513   0.0000       0.876483        23.8503 
 514   0.0000       0.878936        23.9171 
 515   0.0000       0.881376        23.9835 
 516   0.0000       0.883215        24.0335 
 517   0.0000       0.886925        24.1345 
 518   0.0000       0.888282        24.1714 
 519   0.0000       0.890754        24.2387 
 520   0.0000       0.892336        24.2817 
 521   0.0000       0.896149        24.3854 
 522   0.0000       0.898114        24.4389 
 523   0.0000       0.899734        24.4830 
 524   0.0000       0.901242        24.5240 
 525   0.0000       0.902916        24.5696 
 526   0.0000       0.904127        24.6026 
 527   0.0000       0.907025        24.6814 
 528   0.0000       0.908793        24.7295 
 529   0.0000       0.911740        24.8097 
 530   0.0000       0.913536        24.8586 
 531   0.0000       0.914506        24.8850 
 532   0.0000       0.916710        24.9450 
 533   0.0000       0.921084        25.0640 
 534   0.0000       0.922876        25.1127 
 535   0.0000       0.923449        25.1283 
 536   0.0000       0.925042        25.1717 
 537   0.0000       0.927731        25.2448 
 538   0.0000       0.928326        25.2610 
 539   0.0000       0.929996        25.3065 
 540   0.0000       0.934691        25.4342 
 541   0.0000       0.935434        25.4544 
 542   0.0000       0.936978        25.4965 
 543   0.0000       0.938418        25.5357 
 544   0.0000       0.942531        25.6476 
 545   0.0000       0.943155        25.6646 
 546   0.0000       0.946287        25.7498 
 547   0.0000       0.949569        25.8391 
 548   0.0000       0.953499        25.9460 
 549   0.0000       0.954983        25.9864 
 550   0.0000       0.956668        26.0323 
 551   0.0000       0.957782        26.0626 
 552   0.0000       0.960394        26.1337 
 553   0.0000       0.962808        26.1993 
 554   0.0000       0.965860        26.2824 
 555   0.0000       0.967202        26.3189 
 556   0.0000       0.970003        26.3951 
 557   0.0000       0.971864        26.4458 
 558   0.0000       0.973206        26.4823 
 559   0.0000       0.976552        26.5733 
 560   0.0000       0.977820        26.6078 
 561   0.0000       0.981382        26.7048 
 562   0.0000       0.982692        26.7404 
 563   0.0000       0.984495        26.7895 
 564   0.0000       0.990230        26.9455 
 565   0.0000       0.992067        26.9955 
 566   0.0000       0.994580        27.0639 
 567   0.0000       0.995941        27.1009 
 568   0.0000       0.998296        27.1650 
 569   0.0000       0.998974        27.1835 
 570   0.0000       1.001808        27.2606 
 571   0.0000       1.002860        27.2892 
 572   0.0000       1.006139        27.3784 
 573   0.0000       1.007748        27.4222 
 574   0.0000       1.009140        27.4601 
 575   0.0000       1.012944        27.5636 
 576   0.0000       1.014885        27.6164 
 577   0.0000       1.016401        27.6577 
 578   0.0000       1.018773        27.7222 
 579   0.0000       1.020599        27.7719 
 580   0.0000       1.024463        27.8770 
 581   0.0000       1.027308        27.9545 
 582   0.0000       1.029048        28.0018 
 583   0.0000       1.031294        28.0629 
 584   0.0000       1.034684        28.1552 
 585   0.0000       1.035414        28.1751 
 586   0.0000       1.037641        28.2357 
 587   0.0000       1.039911        28.2974 
 588   0.0000       1.041035        28.3280 
 589   0.0000       1.044607        28.4252 
 590   0.0000       1.048663        28.5356 
 591   0.0000       1.050800        28.5937 
 592   0.0000       1.054374        28.6910 
 593   0.0000       1.055869        28.7316 
 594   0.0000       1.059531        28.8313 
 595   0.0000       1.061659        28.8892 
 596   0.0000       1.062174        28.9032 
 597   0.0000       1.064575        28.9686 
 598   0.0000       1.068065        29.0635 
 599   0.0000       1.069759        29.1096 
 600   0.0000       1.073763        29.2186 
 601   0.0000       1.076108        29.2824 
 602   0.0000       1.076707        29.2987 
 603   0.0000       1.078923        29.3590 
 604   0.0000       1.080494        29.4017 
 605   0.0000       1.084289        29.5050 
 606   0.0000       1.085765        29.5452 
 607   0.0000       1.087504        29.5925 
 608   0.0000       1.093148        29.7461 
 609   0.0000       1.093785        29.7634 
 610   0.0000       1.096362        29.8335 
 611   0.0000       1.098543        29.8929 
 612   0.0000       1.099524        29.9196 
 613   0.0000       1.103537        30.0288 
 614   0.0000       1.106646        30.1134 
 615   0.0000       1.107939        30.1486 
 616   0.0000       1.109582        30.1933 
 617   0.0000       1.110991        30.2316 
 618   0.0000       1.113156        30.2905 
 619   0.0000       1.116306        30.3762 
 620   0.0000       1.117327        30.4040 
 621   0.0000       1.119532        30.4640 
 622   0.0000       1.121206        30.5096 
 623   0.0000       1.123920        30.5834 
 624   0.0000       1.128165        30.6989 
 625   0.0000       1.129021        30.7222 
 626   0.0000       1.131551        30.7911 
 627   0.0000       1.134646        30.8753 
 628   0.0000       1.137612        30.9560 
 629   0.0000       1.139257        31.0008 
 630   0.0000       1.141201        31.0536 
 631   0.0000       1.146167        31.1888 
 632   0.0000       1.146690        31.2030 
 633   0.0000       1.148947        31.2644 
 634   0.0000       1.151633        31.3375 
 635   0.0000       1.156123        31.4597 
 636   0.0000       1.159477        31.5510 
 637   0.0000       1.160116        31.5684 
 638   0.0000       1.163771        31.6678 
 639   0.0000       1.165360        31.7111 
 640   0.0000       1.166482        31.7416 
 641   0.0000       1.168227        31.7891 
 642   0.0000       1.169957        31.8362 
 643   0.0000       1.172704        31.9109 
 644   0.0000       1.176483        32.0137 
 645   0.0000       1.179033        32.0831 
 646   0.0000       1.182198        32.1693 
 647   0.0000       1.184468        32.2310 
 648   0.0000       1.186779        32.2939 
 649   0.0000       1.187754        32.3204 
 650   0.0000       1.191128        32.4122 
 651   0.0000       1.192383        32.4464 
 652   0.0000       1.193900        32.4877 
 653   0.0000       1.195798        32.5393 
 654   0.0000       1.199301        32.6346 
 655   0.0000       1.203971        32.7617 
 656   0.0000       1.204909        32.7872 
 657   0.0000       1.207104        32.8470 
 658   0.0000       1.210693        32.9446 
 659   0.0000       1.215915        33.0867 
 660   0.0000       1.219504        33.1844 
 661   0.0000       1.221195        33.2304 
 662   0.0000       1.222165        33.2568 
 663   0.0000       1.223946        33.3053 
 664   0.0000       1.226636        33.3785 
 665   0.0000       1.230702        33.4891 
 666   0.0000       1.235473        33.6189 
 667   0.0000       1.238647        33.7053 
 668   0.0000       1.242331        33.8055 
 669   0.0000       1.244213        33.8568 
 670   0.0000       1.245918        33.9032 
 671   0.0000       1.247743        33.9528 
 672   0.0000       1.248548        33.9747 
 673   0.0000       1.250908        34.0389 
 674   0.0000       1.252634        34.0859 
 675   0.0000       1.256710        34.1968 
 676   0.0000       1.258948        34.2577 
 677   0.0000       1.260609        34.3029 
 678   0.0000       1.261232        34.3199 
 679   0.0000       1.265137        34.4261 
 680   0.0000       1.268446        34.5162 
 681   0.0000       1.273004        34.6402 
 682   0.0000       1.275288        34.7023 
 683   0.0000       1.276112        34.7248 
 684   0.0000       1.276968        34.7481 
 685   0.0000       1.278480        34.7892 
 686   0.0000       1.280941        34.8562 
 687   0.0000       1.285154        34.9708 
 688   0.0000       1.287675        35.0394 
 689   0.0000       1.289466        35.0882 
 690   0.0000       1.293375        35.1945 
 691   0.0000       1.296264        35.2731 
 692   0.0000       1.300377        35.3851 
 693   0.0000       1.302324        35.4380 
 694   0.0000       1.304366        35.4936 
 695   0.0000       1.306027        35.5388 
 696   0.0000       1.308728        35.6123 
 697   0.0000       1.309951        35.6456 
 698   0.0000       1.314204        35.7613 
 699   0.0000       1.316231        35.8165 
 700   0.0000       1.319645        35.9094 
 701   0.0000       1.321593        35.9624 
 702   0.0000       1.324752        36.0483 
 703   0.0000       1.327366        36.1195 
 704   0.0000       1.328382        36.1471 
 705   0.0000       1.329827        36.1864 
 706   0.0000       1.333008        36.2730 
 707   0.0000       1.335179        36.3321 
 708   0.0000       1.336974        36.3809 
 709   0.0000       1.342661        36.5357 
 710   0.0000       1.344400        36.5830 
 711   0.0000       1.348912        36.7058 
 712   0.0000       1.351110        36.7656 
 713   0.0000       1.352919        36.8148 
 714   0.0000       1.354944        36.8699 
 715   0.0000       1.358956        36.9791 
 716   0.0000       1.360942        37.0331 
 717   0.0000       1.363357        37.0988 
 718   0.0000       1.364075        37.1184 
 719   0.0000       1.367440        37.2099 
 720   0.0000       1.375812        37.4378 
 721   0.0000       1.376328        37.4518 
 722   0.0000       1.379585        37.5404 
 723   0.0000       1.380424        37.5633 
 724   0.0000       1.381853        37.6021 
 725   0.0000       1.386529        37.7294 
 726   0.0000       1.390760        37.8445 
 727   0.0000       1.393179        37.9103 
 728   0.0000       1.395092        37.9624 
 729   0.0000       1.397719        38.0339 
 730   0.0000       1.401244        38.1298 
 731   0.0000       1.404460        38.2173 
 732   0.0000       1.407925        38.3116 
 733   0.0000       1.410449        38.3803 
 734   0.0000       1.412895        38.4468 
 735   0.0000       1.414239        38.4834 
 736   0.0000       1.416201        38.5368 
 737   0.0000       1.421675        38.6857 
 738   0.0000       1.423135        38.7255 
 739   0.0000       1.426919        38.8284 
 740   0.0000       1.428453        38.8702 
 741   0.0000       1.430878        38.9362 
 742   0.0000       1.436414        39.0868 
 743   0.0000       1.438543        39.1447 
 744   0.0000       1.438833        39.1526 
 745   0.0000       1.443641        39.2835 
 746   0.0000       1.448410        39.4132 
 747   0.0000       1.449051        39.4307 
 748   0.0000       1.453260        39.5452 
 749   0.0000       1.457175        39.6517 
 750   0.0000       1.461907        39.7805 
 751   0.0000       1.464819        39.8598 
 752   0.0000       1.467049        39.9204 
 753   0.0000       1.469404        39.9845 
 754   0.0000       1.471588        40.0440 
 755   0.0000       1.475317        40.1454 
 756   0.0000       1.477605        40.2077 
 757   0.0000       1.479569        40.2611 
 758   0.0000       1.482457        40.3397 
 759   0.0000       1.485841        40.4318 
 760   0.0000       1.486357        40.4458 
 761   0.0000       1.488605        40.5070 
 762   0.0000       1.490769        40.5659 
 763   0.0000       1.494313        40.6623 
 764   0.0000       1.498972        40.7891 
 765   0.0000       1.501781        40.8655 
 766   0.0000       1.503496        40.9122 
 767   0.0000       1.509412        41.0732 
 768   0.0000       1.511271        41.1238 
 769   0.0000       1.516204        41.2580 
 770   0.0000       1.516909        41.2772 
 771   0.0000       1.520148        41.3653 
 772   0.0000       1.522366        41.4257 
 773   0.0000       1.524959        41.4963 
 774   0.0000       1.526435        41.5364 
 775   0.0000       1.531327        41.6695 
 776   0.0000       1.533263        41.7222 
 777   0.0000       1.537917        41.8488 
 778   0.0000       1.539518        41.8924 
 779   0.0000       1.541088        41.9351 
 780   0.0000       1.545661        42.0596 
 781   0.0000       1.547595        42.1122 
 782   0.0000       1.552160        42.2364 
 783   0.0000       1.554241        42.2930 
 784   0.0000       1.554492        42.2999 
 785   0.0000       1.557485        42.3813 
 786   0.0000       1.559249        42.4293 
 787   0.0000       1.564756        42.5792 
 788   0.0000       1.566179        42.6179 
 789   0.0000       1.567450        42.6525 
 790   0.0000       1.573363        42.8134 
 791   0.0000       1.574761        42.8514 
 792   0.0000       1.578551        42.9546 
 793   0.0000       1.583504        43.0893 
 794   0.0000       1.584791        43.1243 
 795   0.0000       1.585983        43.1568 
 796   0.0000       1.589527        43.2532 
 797   0.0000       1.595734        43.4221 
 798   0.0000       1.599310        43.5194 
 799   0.0000       1.600652        43.5559 
 800   0.0000       1.602571        43.6082 
 801   0.0000       1.604572        43.6626 
 802   0.0000       1.606270        43.7088 
 803   0.0000       1.610607        43.8268 
 804   0.0000       1.615517        43.9604 
 805   0.0000       1.617972        44.0273 
 806   0.0000       1.618978        44.0546 
 807   0.0000       1.620297        44.0905 
 808   0.0000       1.624356        44.2010 
 809   0.0000       1.625967        44.2448 
 810   0.0000       1.630381        44.3649 
 811   0.0000       1.631721        44.4014 
 812   0.0000       1.632453        44.4213 
 813   0.0000       1.635406        44.5017 
 814   0.0000       1.638860        44.5957 
 815   0.0000       1.640511        44.6406 
 816   0.0000       1.646234        44.7963 
 817   0.0000       1.648765        44.8652 
 818   0.0000       1.653018        44.9809 
 819   0.0000       1.654978        45.0342 
 820   0.0000       1.657269        45.0966 
 821   0.0000       1.659845        45.1667 
 822   0.0000       1.663576        45.2682 
 823   0.0000       1.665838        45.3298 
 824   0.0000       1.669289        45.4237 
 825   0.0000       1.671424        45.4818 
 826   0.0000       1.678849        45.6838 
 827   0.0000       1.680614        45.7318 
 828   0.0000       1.683428        45.8084 
 829   0.0000       1.687344        45.9150 
 830   0.0000       1.691846        46.0375 
 831   0.0000       1.695526        46.1376 
 832   0.0000       1.698589        46.2210 
 833   0.0000       1.701014        46.2869 
 834   0.0000       1.704347        46.3776 
 835   0.0000       1.705691        46.4142 
 836   0.0000       1.713415        46.6244 
 837   0.0000       1.716888        46.7189 
 838   0.0000       1.718090        46.7516 
 839   0.0000       1.720684        46.8222 
 840   0.0000       1.722476        46.8709 
 841   0.0000       1.723312        46.8937 
 842   0.0000       1.731709        47.1222 
 843   0.0000       1.732895        47.1545 
 844   0.0000       1.737901        47.2907 
 845   0.0000       1.740490        47.3611 
 846   0.0000       1.741837        47.3978 
 847   0.0000       1.747055        47.5398 
 848   0.0000       1.752220        47.6803 
 849   0.0000       1.754572        47.7443 
 850   0.0000       1.756625        47.8002 
 851   0.0000       1.757480        47.8235 
 852   0.0000       1.760015        47.8924 
 853   0.0000       1.763685        47.9923 
 854   0.0000       1.764779        48.0221 
 855   0.0000       1.771349        48.2009 
 856   0.0000       1.773447        48.2580 
 857   0.0000       1.776413        48.3387 
 858   0.0000       1.779793        48.4306 
 859   0.0000       1.781517        48.4775 
 860   0.0000       1.787967        48.6531 
 861   0.0000       1.790756        48.7290 
 862   0.0000       1.793513        48.8040 
 863   0.0000       1.794870        48.8409 
 864   0.0000       1.799556        48.9684 
 865   0.0000       1.802351        49.0445 
 866   0.0000       1.807711        49.1903 
 867   0.0000       1.808825        49.2206 
 868   0.0000       1.814409        49.3726 
 869   0.0000       1.816706        49.4351 
 870   0.0000       1.819700        49.5166 
 871   0.0000       1.820715        49.5442 
 872   0.0000       1.825045        49.6620 
 873   0.0000       1.826783        49.7093 
 874   0.0000       1.833844        49.9014 
 875   0.0000       1.835258        49.9399 
 876   0.0000       1.839660        50.0597 
 877   0.0000       1.843112        50.1536 
 878   0.0000       1.846505        50.2459 
 879   0.0000       1.856043        50.5055 
 880   0.0000       1.857798        50.5533 
 881   0.0000       1.859825        50.6084 
 882   0.0000       1.864987        50.7489 
 883   0.0000       1.865714        50.7687 
 884   0.0000       1.866524        50.7907 
 885   0.0000       1.869625        50.8751 
 886   0.0000       1.872419        50.9511 
 887   0.0000       1.875860        51.0448 
 888   0.0000       1.878979        51.1296 
 889   0.0000       1.881055        51.1861 
 890   0.0000       1.885059        51.2951 
 891   0.0000       1.889949        51.4281 
 892   0.0000       1.894909        51.5631 
 893   0.0000       1.897921        51.6451 
 894   0.0000       1.899482        51.6875 
 895   0.0000       1.904825        51.8329 
 896   0.0000       1.906953        51.8908 
 897   0.0000       1.910898        51.9982 
 898   0.0000       1.912616        52.0449 
 899   0.0000       1.914729        52.1024 
 900   0.0000       1.916723        52.1567 
 901   0.0000       1.920242        52.2525 
 902   0.0000       1.922674        52.3186 
 903   0.0000       1.927091        52.4388 
 904   0.0000       1.929295        52.4988 
 905   0.0000       1.931234        52.5516 
 906   0.0000       1.935546        52.6689 
 907   0.0000       1.938524        52.7499 
 908   0.0000       1.940694        52.8090 
 909   0.0000       1.942632        52.8617 
 910   0.0000       1.946395        52.9641 
 911   0.0000       1.950799        53.0839 
 912   0.0000       1.956838        53.2483 
 913   0.0000       1.958498        53.2934 
 914   0.0000       1.961902        53.3861 
 915   0.0000       1.963567        53.4314 
 916   0.0000       1.964192        53.4484 
 917   0.0000       1.971060        53.6353 
 918   0.0000       1.974525        53.7296 
 919   0.0000       1.976149        53.7737 
 920   0.0000       1.977652        53.8146 
 921   0.0000       1.981263        53.9129 
 922   0.0000       1.982491        53.9463 
 923   0.0000       1.985428        54.0262 
 924   0.0000       1.986791        54.0633 
 925   0.0000       1.994800        54.2813 
 926   0.0000       1.996002        54.3140 
 927   0.0000       1.997111        54.3442 
 928   0.0000       2.001266        54.4572 
 929   0.0000       2.001865        54.4735 
 930   0.0000       2.004887        54.5557 
 931   0.0000       2.007477        54.6262 
 932   0.0000       2.011429        54.7338 
 933   0.0000       2.012475        54.7622 
 934   0.0000       2.016979        54.8848 
 935   0.0000       2.018770        54.9335 
 936   0.0000       2.023662        55.0667 
 937   0.0000       2.024241        55.0824 
 938   0.0000       2.028230        55.1909 
 939   0.0000       2.032799        55.3153 
 940   0.0000       2.036271        55.4098 
 941   0.0000       2.036519        55.4165 
 942   0.0000       2.038589        55.4728 
 943   0.0000       2.040248        55.5180 
 944   0.0000       2.047372        55.7118 
 945   0.0000       2.048861        55.7523 
 946   0.0000       2.051278        55.8181 
 947   0.0000       2.053123        55.8683 
 948   0.0000       2.053763        55.8857 
 949   0.0000       2.057278        55.9814 
 950   0.0000       2.060127        56.0589 
 951   0.0000       2.065503        56.2052 
 952   0.0000       2.067443        56.2580 
 953   0.0000       2.068934        56.2985 
 954   0.0000       2.071137        56.3585 
 955   0.0000       2.073531        56.4236 
 956   0.0000       2.076389        56.5014 
 957   0.0000       2.082050        56.6555 
 958   0.0000       2.085885        56.7598 
 959   0.0000       2.087075        56.7922 
 960   0.0000       2.088930        56.8427 
 961   0.0000       2.092032        56.9271 
 962   0.0000       2.094904        57.0052 
 963   0.0000       2.098550        57.1044 
 964   0.0000       2.100907        57.1686 
 965   0.0000       2.102292        57.2063 
[...]
 3209   0.0000      11.371592       309.4367 
 3210   0.0000      11.396852       310.1241 
 3211   0.0000      11.425882       310.9141 
 3212   0.0000      11.458096       311.7906 
 3213   0.0000      11.467258       312.0400 
 3214   0.0000      11.472043       312.1702 
 3215   0.0000      11.489007       312.6318 
 3216   0.0000      11.515205       313.3447 
 3217   0.0000      11.530851       313.7704 
 3218   0.0000      11.535421       313.8948 
 3219   0.0000      11.549859       314.2876 
 3220   0.0000      11.608458       315.8822 
 3221   0.0000      11.610858       315.9475 
 3222   0.0000      11.623344       316.2873 
 3223   0.0000      11.628054       316.4154 
 3224   0.0000      11.645582       316.8924 
 3225   0.0000      11.658271       317.2377 
 3226   0.0000      11.682537       317.8980 
 3227   0.0000      11.731161       319.2211 
 3228   0.0000      11.741077       319.4910 
 3229   0.0000      11.751082       319.7632 
 3230   0.0000      11.767674       320.2147 
 3231   0.0000      11.785788       320.7076 
 3232   0.0000      11.807084       321.2871 
 3233   0.0000      11.815198       321.5079 
 3234   0.0000      11.822452       321.7053 
 3235   0.0000      11.825327       321.7835 
 3236   0.0000      11.841463       322.2226 
 3237   0.0000      11.859823       322.7222 
 3238   0.0000      11.862477       322.7944 
 3239   0.0000      11.868140       322.9485 
 3240   0.0000      11.892205       323.6034 
 3241   0.0000      11.902876       323.8937 
 3242   0.0000      11.910260       324.0947 
 3243   0.0000      11.929424       324.6161 
 3244   0.0000      11.940670       324.9221 
 3245   0.0000      11.957196       325.3718 
 3246   0.0000      11.974544       325.8439 
 3247   0.0000      11.988353       326.2197 
 3248   0.0000      12.020356       327.0905 
 3249   0.0000      12.036596       327.5324 
 3250   0.0000      12.060830       328.1919 
 3251   0.0000      12.083277       328.8027 
 3252   0.0000      12.086421       328.8882 
 3253   0.0000      12.102428       329.3238 
 3254   0.0000      12.115147       329.6699 
 3255   0.0000      12.135277       330.2177 
 3256   0.0000      12.147041       330.5378 
 3257   0.0000      12.163280       330.9797 
 3258   0.0000      12.169073       331.1373 
 3259   0.0000      12.170668       331.1807 
 3260   0.0000      12.185012       331.5710 
 3261   0.0000      12.193909       331.8131 
 3262   0.0000      12.195346       331.8522 
 3263   0.0000      12.209231       332.2301 
 3264   0.0000      12.223010       332.6050 
 3265   0.0000      12.227056       332.7151 
 3266   0.0000      12.239314       333.0487 
 3267   0.0000      12.244693       333.1950 
 3268   0.0000      12.263915       333.7181 
 3269   0.0000      12.272676       333.9565 
 3270   0.0000      12.281461       334.1956 
 3271   0.0000      12.285974       334.3183 
 3272   0.0000      12.289149       334.4047 
 3273   0.0000      12.297319       334.6271 
 3274   0.0000      12.326543       335.4223 
 3275   0.0000      12.344531       335.9118 
 3276   0.0000      12.359000       336.3055 
 3277   0.0000      12.366322       336.5047 
 3278   0.0000      12.370131       336.6084 
 3279   0.0000      12.390322       337.1578 
 3280   0.0000      12.416560       337.8718 
 3281   0.0000      12.429234       338.2166 
 3282   0.0000      12.436235       338.4072 
 3283   0.0000      12.457460       338.9847 
 3284   0.0000      12.465611       339.2065 
 3285   0.0000      12.491242       339.9040 
 3286   0.0000      12.500888       340.1664 
 3287   0.0000      12.509523       340.4014 
 3288   0.0000      12.510524       340.4287 
 3289   0.0000      12.529791       340.9529 
 3290   0.0000      12.540090       341.2332 
 3291   0.0000      12.549396       341.4864 
 3292   0.0000      12.560148       341.7790 
 3293   0.0000      12.564860       341.9072 
 3294   0.0000      12.577951       342.2634 
 3295   0.0000      12.607072       343.0559 
 3296   0.0000      12.620828       343.4302 
 3297   0.0000      12.634820       343.8109 
 3298   0.0000      12.668348       344.7233 
 3299   0.0000      12.675043       344.9055 
 3300   0.0000      12.701914       345.6367 
 3301   0.0000      12.716606       346.0364 
 3302   0.0000      12.751558       346.9875 
 3303   0.0000      12.778085       347.7094 
 3304   0.0000      12.783013       347.8435 
 3305   0.0000      12.792170       348.0926 
 3306   0.0000      12.802447       348.3723 
 3307   0.0000      12.811237       348.6115 
 3308   0.0000      12.814759       348.7073 
 3309   0.0000      12.817853       348.7915 
 3310   0.0000      12.836914       349.3102 
 3311   0.0000      12.846046       349.5587 
 3312   0.0000      12.861104       349.9684 
 3313   0.0000      12.880952       350.5085 
 3314   0.0000      12.890337       350.7639 
 3315   0.0000      12.901637       351.0714 
 3316   0.0000      12.941796       352.1642 
 3317   0.0000      12.973331       353.0223 
 3318   0.0000      12.996102       353.6419 
 3319   0.0000      13.012362       354.0844 
 3320   0.0000      13.024513       354.4150 
 3321   0.0000      13.029664       354.5552 
 3322   0.0000      13.066245       355.5506 
 3323   0.0000      13.096130       356.3638 
 3324   0.0000      13.100933       356.4945 
 3325   0.0000      13.121258       357.0476 
 3326   0.0000      13.137125       357.4793 
 3327   0.0000      13.143657       357.6571 
 3328   0.0000      13.151409       357.8680 
 3329   0.0000      13.161320       358.1377 
 3330   0.0000      13.185251       358.7889 
 3331   0.0000      13.203454       359.2843 
 3332   0.0000      13.223433       359.8279 
 3333   0.0000      13.238785       360.2456 
 3334   0.0000      13.258522       360.7827 
 3335   0.0000      13.290591       361.6554 
 3336   0.0000      13.312994       362.2650 
 3337   0.0000      13.355116       363.4112 
 3338   0.0000      13.369478       363.8020 
 3339   0.0000      13.391175       364.3924 
 3340   0.0000      13.396206       364.5293 
 3341   0.0000      13.402229       364.6932 
 3342   0.0000      13.445552       365.8721 
 3343   0.0000      13.447814       365.9336 
 3344   0.0000      13.518870       367.8671 
 3345   0.0000      13.560591       369.0024 
 3346   0.0000      13.629424       370.8755 
 3347   0.0000      13.673991       372.0882 
 3348   0.0000      13.746395       374.0584 
 3349   0.0000      13.825476       376.2103 
 3350   0.0000      13.906188       378.4066 
 3351   0.0000      13.911647       378.5552 
 3352   0.0000      13.939430       379.3112 
 3353   0.0000      14.146304       384.9405 
 3354   0.0000      14.190501       386.1432 
 3355   0.0000      14.420898       392.4126 
 3356   0.0000      14.559674       396.1889 
 3357   0.0000      14.665903       399.0795 
 3358   0.0000      14.670535       399.2056 
 3359   0.0000      14.679352       399.4455 
 3360   0.0000      14.681934       399.5157 
 3361   0.0000      14.722978       400.6326 
 3362   0.0000      14.774580       402.0368 
 3363   0.0000      14.994481       408.0206 
 3364   0.0000      15.027966       408.9317 
 3365   0.0000      15.092939       410.6998 
 3366   0.0000      15.234611       414.5548 
 3367   0.0000      16.694338       454.2760 
 3368   0.0000      16.736320       455.4184 
 3369   0.0000      19.487764       530.2890 
 3370   0.0000      19.566295       532.4259 
 3371   0.0000      19.897555       541.4400 
 3372   0.0000      21.431919       583.1922 
 3373   0.0000      28.461544       774.4780 
 3374   0.0000      28.542228       776.6735 
 3375   0.0000      28.753681       782.4274 
 3376   0.0000      28.798762       783.6542 
 3377   0.0000      28.833555       784.6009 
 3378   0.0000      28.907260       786.6065 
 3379   0.0000      28.917014       786.8719 
 3380   0.0000      28.982763       788.6611 
 3381   0.0000      29.072774       791.1104 
 3382   0.0000      29.202401       794.6377 
 3383   0.0000      29.214086       794.9557 
 3384   0.0000      29.222237       795.1775 
 3385   0.0000      29.237325       795.5881 
 3386   0.0000      29.254484       796.0550 
 3387   0.0000      29.256398       796.1071 
 3388   0.0000      29.280886       796.7734 
 3389   0.0000      29.312286       797.6278 
 3390   0.0000      29.330562       798.1252 
 3391   0.0000      29.336670       798.2914 
 3392   0.0000      29.388977       799.7147 
 3393   0.0000      29.404361       800.1333 
 3394   0.0000      29.419862       800.5551 
 3395   0.0000      29.438293       801.0567 
 3396   0.0000      29.456916       801.5634 
 3397   0.0000      29.457937       801.5912 
 3398   0.0000      29.507071       802.9282 
 3399   0.0000      29.629023       806.2467 
 3400   0.0000      38.072430      1036.0035 
 3401   0.0000      38.134330      1037.6879 
 3402   0.0000      38.336157      1043.1799 
 3403   0.0000      38.451070      1046.3068 
 3404   0.0000      38.465184      1046.6909 
 3405   0.0000      38.629838      1051.1713 
 3406   0.0000      48.620793      1323.0391 
 3407   0.0000      48.717070      1325.6589 
 3408   0.0000      48.775370      1327.2453 
 3409   0.0000      48.815989      1328.3506 
 3410   0.0000      48.874591      1329.9452 
 3411   0.0000      48.896799      1330.5496 
 3412   0.0000      48.910894      1330.9331 
 3413   0.0000      48.998129      1333.3069 
 3414   0.0000      71.753837      1952.5212 
 3415   0.0000     148.036818      4028.2866 
 3416   0.0000     148.116984      4030.4680 
 3417   0.0000     148.313475      4035.8148 
 3418   0.0000     148.319150      4035.9692 
 3419   0.0000     148.396342      4038.0698 
 3420   0.0000     148.424429      4038.8340 
 3421   0.0000     148.472436      4040.1404 
 3422   0.0000     148.546314      4042.1507 
 3423   0.0000     148.666587      4045.4235 
 3424   0.0000     148.730846      4047.1721 
 3425   0.0000     148.760423      4047.9769 
 3426   0.0000     148.787579      4048.7159 
 3427   0.0000     148.798286      4049.0072 
 3428   0.0000     148.819892      4049.5951 
 3429   0.0000     148.836964      4050.0597 
 3430   0.0000     148.845797      4050.3001 
 3431   0.0000     148.871643      4051.0034 
 3432   0.0000     148.881624      4051.2749 
 3433   0.0000     148.920545      4052.3341 
 3434   0.0000     148.958332      4053.3623 
 3435   0.0000     148.960015      4053.4081 
 3436   0.0000     148.990449      4054.2362 
 3437   0.0000     149.007662      4054.7046 
 3438   0.0000     149.008865      4054.7373 
 3439   0.0000     149.065281      4056.2725 
 3440   0.0000     149.091908      4056.9971 
 3441   0.0000     149.163986      4058.9584 
 3442   0.0000     197.938783      5386.1881 
 3443   0.0000     198.012314      5388.1890 
 3444   0.0000     198.251330      5394.6930 
 3445   0.0000     198.311019      5396.3172 
 3446   0.0000     198.368060      5397.8693 
 3447   0.0000     198.512825      5401.8086 
 3448   0.0000     254.289735      6919.5755 
 3449   0.0000     254.407412      6922.7776 
 3450   0.0000     254.466380      6924.3822 
 3451   0.0000     254.515093      6925.7078 
 3452   0.0000     254.564334      6927.0477 
 3453   0.0000     254.610385      6928.3008 
 3454   0.0000     254.612328      6928.3537 
 3455   0.0000     254.722377      6931.3483 
 3456   0.0000     384.229521     10455.4168 
Total SCF time: 0 days 0 hours 30 min 1 sec 


           ************************************************************
           *        Program running with 36 parallel MPI-processes    *
           *              working on a common directory               *
           ************************************************************

------------------------------------------------------------------------------
                                ORCA  MP2 
------------------------------------------------------------------------------

Freezing NCore=92 chemical core electrons

   <<< Use J-auxbasis for calculation of Separable RI-J derivative contributions (Dim=2445) >>> 


-------------
RI-MP2 ENERGY
-------------
Dimension of the basis                    ... 3457
Memory devoted to MP2                     ... 6000 MB   
Data format for buffers                   ... DOUBLE
Compression type for matrix containers    ... UNCOMPRESSED
Scaling for aa/bb pairs                   ...   0.000e+00
Scaling for ab pairs                      ...   1.000e+00
Overall scaling of the MP2 energy         ...   2.690e-01
Calculating two index integrals           ... done (    0.916 sec)
Cholesky decomposition of V**-1           ... done (   10.272 sec)

-----------------
RI-TRANSFORMATION (AUX index driven)
-----------------

Dimension of the orbital-basis         ... 3457
Dimension of the aux-basis             ... 7908
Transformation of internal/external MOs...   46- 158 to  159-3456
Number Format for Storage              ... Double (8 Byte)
Integral mode                          ... Direct

First Phase: integral generation and transformation of MO indices
  Aux angular momentum 0               ... done (    8.552 sec)
  Aux angular momentum 1               ... done (   17.997 sec)
  Aux angular momentum 2               ... done (   25.550 sec)
  Aux angular momentum 3               ... done (   22.474 sec)
  Aux angular momentum 4               ... done (   18.288 sec)
  Aux angular momentum 5               ... done (    7.351 sec)
Closing buffer VIA (21.96 GB; CompressionRatio= 1.00)
  Phase 1 completed in   102.476 sec
Second Phase: sorting and transformation of aux index

IA-Transformation
Memory available                       ... 4549 MB 
Max. # MO pairs treated in a batch     ... 4    
# of internal orbitals                 ... 113
# batches for internal orbitals        ... 1
Closing buffer IAV ( 0.78 GB; CompressionRatio= 1.00)
(ia|v) transformation done in    72.784 sec

  Phase 2 completed in   109.645 sec
RI-Integral transformation completed in   212.150 sec
Opening buffers                              ... done

Starting loop over batches of integrals:

Operator 0  - window                       ... ( 46-158)x(159-3456)
Operator 0  - Memory available             ...  6000 MB
Operator 0  - Memory needed per MO         ... 199.0 MB
Operator 0  - Number of orbitals per batch ... 4
Operator 0  - Number of batches            ... 1

OPERATOR  0   PASS   0:  MOs    46 ...   49 +   50 ...   53 +   54 ...   57 +   58 ...   61
                            +   62 ...   65 +   66 ...   69 +   70 ...   73 +   74 ...   77
                            +   78 ...   81 +   82 ...   85 +   86 ...   89 +   90 ...   93
                            +   94 ...   97 +   98 ...  101 +  102 ...  105 +  106 ...  109
                            +  110 ...  113 +  114 ...  117 +  118 ...  121 +  122 ...  125
                            +  126 ...  129 +  130 ...  133 +  134 ...  137 +  138 ...  141
                            +  142 ...  145 +  146 ...  149 +  150 ...  153 +  154 ...  157
                            +  158 ...  158
  Reading integrals       ... ok
  Internal MO  48
Time spent in pair loops =    64.852 sec
Deleting buffer (Ka|jb)[aa] ...done

-----------------------------------------------
 RI-MP2 CORRELATION ENERGY:     -2.021253462 Eh
-----------------------------------------------


-------
TIMINGS
-------

Total time                : 2661.602 sec
Integral trafo            :  212.196 sec (  8.0%)
I/O of integrals          :    1.076 sec (  0.0%)
K(i,j) Operators          :   59.989 sec (  2.3%)
T(i,j) pair energies      :    2.635 sec (  0.1%)
V-calculation             :    0.916 sec (  0.0%)
V**(-1/2)                 :   10.272 sec (  0.4%)
Gamma(ia|P)               :    0.000 sec (  0.0%)
Gamma-Trafo               :    0.000 sec (  0.0%)
D(virtual)                :    0.000 sec (  0.0%)
D(internal)               :    0.000 sec (  0.0%)
W(virtual)                :    0.000 sec (  0.0%)
W(internal)               :    0.000 sec (  0.0%)
L(virtual)                :    0.000 sec (  0.0%)
L(internal)               :    0.000 sec (  0.0%)
G(D)                      :    0.000 sec (  0.0%)
G(Z)                      :    0.000 sec (  0.0%)
Z-Vector Solution         :    0.000 sec (  0.0%)
3-Index Derivative        :    0.000 sec (  0.0%)
2-Index Derivative        :    0.000 sec (  0.0%)
Separable Gradient (RIJ)  :    0.000 sec (  0.0%)
Separable Gradient (COSX) :    0.000 sec (  0.0%)


---------------------------------------
MP2 TOTAL ENERGY:    -2321.311643610 Eh
---------------------------------------


-------------------------------------------------------------------------------
                          DFT DISPERSION CORRECTION                            
                                                                               
                              DFTD3 V3.1  Rev 1                                
                          USING Becke-Johnson damping                          
-------------------------------------------------------------------------------
-------------------------   ----------------
Dispersion correction           -0.051888737
-------------------------   ----------------


-------------------------   --------------------
FINAL SINGLE POINT ENERGY     -2321.363532347723
-------------------------   --------------------


                            ***************************************
                            *     ORCA property calculations      *
                            ***************************************


  WARNING: The energy has been calculated at the MP2 level but the densities
           used in the property calculations are still SCF densities
           MP2 response densities have not been calculated 
           use %mp2 Density relaxed end
           or  %mp2 Density unrelaxed end

                                    ---------------------
                                    Active property flags
                                    ---------------------
   (+) Dipole Moment


------------------------------------------------------------------------------
                       ORCA ELECTRIC PROPERTIES CALCULATION
------------------------------------------------------------------------------

Dipole Moment Calculation                       ... on
Quadrupole Moment Calculation                   ... off
Polarizability Calculation                      ... off
GBWName                                         ... orcaSP.gbw
Electron density file                           ... orcaSP.scfp
The origin for moment calculation is the CENTER OF MASS  = (-0.141325, -0.009907 -0.036854)

-------------
DIPOLE MOMENT
-------------
                                X             Y             Z
Electronic contribution:    -44.26155      -0.48853     -13.06793
Nuclear contribution   :     44.94116       3.15026      11.71953
                        -----------------------------------------
Total Dipole Moment    :      0.67960       2.66173      -1.34840
                        -----------------------------------------
Magnitude (a.u.)       :      3.06021
Magnitude (Debye)      :      7.77843



--------------------
Rotational spectrum 
--------------------
 
Rotational constants in cm-1:     0.003910     0.002152     0.001870 
Rotational constants in MHz :   117.207484    64.502594    56.059507 

 Dipole components along the rotational axes: 
x,y,z [a.u.] :     0.721047    -2.677478    -1.294632 
x,y,z [Debye]:     1.832756    -6.805608    -3.290692 

 

Timings for individual modules:

Sum of individual times         ...     4496.442 sec (=  74.941 min)
GTO integral calculation        ...       30.745 sec (=   0.512 min)   0.7 %
SCF iterations                  ...     1802.271 sec (=  30.038 min)  40.1 %
MP2 module                      ...     2663.426 sec (=  44.390 min)  59.2 %
                             ****ORCA TERMINATED NORMALLY****
TOTAL RUN TIME: 0 days 1 hours 14 minutes 59 seconds 134 msec
