
                                 *****************
                                 * O   R   C   A *
                                 *****************

           --- An Ab Initio, DFT and Semiempirical electronic structure package ---

                  #######################################################
                  #                        -***-                        #
                  #          Department of theory and spectroscopy      #
                  #               Directorship: Frank Neese             #
                  #        Max Planck Institute fuer Kohlenforschung    #
                  #                Kaiser Wilhelm Platz 1               #
                  #                 D-45470 Muelheim/Ruhr               #
                  #                      Germany                        #
                  #                                                     #
                  #                  All rights reserved                #
                  #                        -***-                        #
                  #######################################################


                         Program Version 4.2.1 -  RELEASE  -


 With contributions from (in alphabetic order):
   Daniel Aravena         : Magnetic Suceptibility
   Michael Atanasov       : Ab Initio Ligand Field Theory (pilot matlab implementation)
   Alexander A. Auer      : GIAO ZORA, VPT2
   Ute Becker             : Parallelization
   Giovanni Bistoni       : ED, misc. LED, open-shell LED, HFLD
   Martin Brehm           : Molecular dynamics
   Dmytro Bykov           : SCF Hessian
   Vijay G. Chilkuri      : MRCI spin determinant printing, contributions to CSF-ICE
   Dipayan Datta          : RHF DLPNO-CCSD density
   Achintya Kumar Dutta   : EOM-CC, STEOM-CC
   Dmitry Ganyushin       : Spin-Orbit,Spin-Spin,Magnetic field MRCI
   Miquel Garcia          : C-PCM Hessian, Gaussian charge scheme
   Yang Guo               : DLPNO-NEVPT2, CIM, IAO-localization
   Andreas Hansen         : Spin unrestricted coupled pair/coupled cluster methods
   Benjamin Helmich-Paris : CASSCF linear response (MC-RPA)
   Lee Huntington         : MR-EOM, pCC
   Robert Izsak           : Overlap fitted RIJCOSX, COSX-SCS-MP3, EOM
   Christian Kollmar      : KDIIS, OOCD, Brueckner-CCSD(T), CCSD density
   Simone Kossmann        : Meta GGA functionals, TD-DFT gradient, OOMP2, MP2 Hessian
   Martin Krupicka        : AUTO-CI
   Lucas Lang             : DCDCAS
   Dagmar Lenk            : GEPOL surface, SMD
   Dimitrios Liakos       : Extrapolation schemes; Compound Job, initial MDCI parallelization
   Dimitrios Manganas     : Further ROCIS development; embedding schemes
   Dimitrios Pantazis     : SARC Basis sets
   Taras Petrenko         : DFT Hessian,TD-DFT gradient, ASA, ECA, R-Raman, ABS, FL, XAS/XES, NRVS
   Peter Pinski           : DLPNO-MP2, DLPNO-MP2 Gradient
   Christoph Reimann      : Effective Core Potentials
   Marius Retegan         : Local ZFS, SOC
   Christoph Riplinger    : Optimizer, TS searches, QM/MM, DLPNO-CCSD(T), (RO)-DLPNO pert. Triples
   Tobias Risthaus        : Range-separated hybrids, TD-DFT gradient, RPA, STAB
   Michael Roemelt        : Original ROCIS implementation
   Masaaki Saitow         : Open-shell DLPNO-CCSD energy and density
   Barbara Sandhoefer     : DKH picture change effects
   Avijit Sen             : IP-ROCIS
   Kantharuban Sivalingam : CASSCF convergence, NEVPT2, FIC-MRCI
   Bernardo de Souza      : ESD, SOC TD-DFT
   Georgi Stoychev        : AutoAux, RI-MP2 NMR
   Willem Van den Heuvel  : Paramagnetic NMR
   Boris Wezisla          : Elementary symmetry handling
   Frank Wennmohs         : Technical directorship


 We gratefully acknowledge several colleagues who have allowed us to
 interface, adapt or use parts of their codes:
   Stefan Grimme, W. Hujo, H. Kruse,             : VdW corrections, initial TS optimization,
                  C. Bannwarth                     DFT functionals, gCP, sTDA/sTD-DF
   Ed Valeev, F. Pavosevic, A. Kumar             : LibInt (2-el integral package), F12 methods
   Garnet Chan, S. Sharma, J. Yang, R. Olivares  : DMRG
   Ulf Ekstrom                                   : XCFun DFT Library
   Mihaly Kallay                                 : mrcc  (arbitrary order and MRCC methods)
   Andreas Klamt, Michael Diedenhofen            : otool_cosmo (COSMO solvation model)
   Jiri Pittner, Ondrej Demel                    : Mk-CCSD
   Frank Weinhold                                : gennbo (NPA and NBO analysis)
   Christopher J. Cramer and Donald G. Truhlar   : smd solvation model
   Lars Goerigk                                  : TD-DFT with DH, B97 family of functionals
   V. Asgeirsson, H. Jonsson                     : NEB implementation
   FAccTs GmbH                                   : IRC, NEB, NEB-TS, Multilevel, MM, QM/MM, CI optimization
   S Lehtola, MJT Oliveira, MAL Marques          : LibXC Library


 Your calculation uses the libint2 library for the computation of 2-el integrals
 For citations please refer to: http://libint.valeyev.net

 Your ORCA version has been built with support for libXC version: 4.2.3
 For citations please refer to: https://tddft.org/programs/libxc/

 This ORCA versions uses:
   CBLAS   interface :  Fast vector & matrix operations
   LAPACKE interface :  Fast linear algebra routines
   SCALAPACK package :  Parallel linear algebra routines


Your calculation utilizes the atom-pairwise dispersion correction
with the Becke-Johnson damping scheme (D3BJ)
Cite in your paper:
S.Grimme, S.Ehrlich, L.Goerigk, J Comput Chem, (2011), 32, 1456–1465 
S.Grimme, J.Antony, S.Ehrlich and H.Krieg, J.Chem.Phys., 132, (2010), 154104 
   

Your calculation utilizes the SMD solvation module
Please cite in your paper:
A.V. Marenich, C.J. Cramer, D.G. Truhlar J. Phys. Chem. B, 113, (2009), 6378 

----- Orbital basis set information -----
Your calculation utilizes the basis: def2-QZVPP
   F. Weigend and R. Ahlrichs, Phys. Chem. Chem. Phys. 7, 3297 (2005).

----- AuxJ basis set information -----
Your calculation utilizes the auxiliary basis: def2/J
   F. Weigend, Phys. Chem. Chem. Phys. 8, 1057 (2006).

----- AuxC basis set information -----
Your calculation utilizes the auxiliary basis: def2-QZVPP/C
  H-La, Hf-Rn : A. Hellweg, C. Hattig, S. Hofener and W. Klopper, Theor. Chem. Acc. 117, 587 (2007).
        Ce-Lu : J. Chmela and M. E. Harding, Mol. Phys. (2018).

================================================================================
                                        WARNINGS
                       Please study these warnings very carefully!
================================================================================


WARNING: No MP2 level density has been requested!
         To caclulate MP2 level properties use
         %mp2 Density relaxed end
         or
         %mp2 Density unrelaxed end
         Otherwise for double-hybrid DFT only the energy is correct!

WARNING: The frozen-core approximation is turned on by default for 
         the MP2 part of double-hybrid DFT.

INFO   : the flag for use of LIBINT has been found!

================================================================================
                                       INPUT FILE
================================================================================
NAME = orcaSP.inp
|  1> ! PWPB95 D3 def2-QZVPP def2/J def2-QZVPP/C RIJCOSX grid4 gridx4 tightSCF noautostart miniprint nopop
|  2> %maxcore 6000
|  3> %pal nprocs 36 end
|  4> %cpcm
|  5> smd true
|  6> SMDsolvent "water"
|  7> end
|  8> * xyz 0 1
|  9> C      -2.43494300    0.10212800    3.43719900
| 10> C      -3.80202600    0.35174000    2.79541500
| 11> C      -4.11417200   -0.57257000    1.60176200
| 12> C      -4.50906700   -1.98761000    2.05991400
| 13> C      -4.76198400   -2.98617200    0.92458900
| 14> C      -5.20211700    0.04014100    0.71790300
| 15> O      -4.76463800    1.32829500    0.21119300
| 16> C      -3.91099100    1.29395000   -0.82277400
| 17> O      -3.63272500    0.30211400   -1.46536400
| 18> C      -3.32711800    2.67871700   -1.10155100
| 19> C      -4.28242000    3.49119500   -1.98082800
| 20> N      -2.01619500    2.57427800   -1.73919200
| 21> P      -0.73164600    2.01591800   -0.82918900
| 22> O      -0.99199400    2.08212200    0.62699000
| 23> O       0.45837500    2.90612300   -1.44460000
| 24> C       1.84944100    2.55301000   -1.38544600
| 25> C       2.40373100    2.52051400    0.03685500
| 26> C       3.93522800    2.59523600    0.08645100
| 27> C       4.36431900    1.11819800    0.15903000
| 28> C       3.19178200    0.49176700    1.00095700
| 29> O       2.03482400    1.26768700    0.66083200
| 30> C       3.47901700    0.71253400    2.44175300
| 31> N       3.68183600    0.99289700    3.54967500
| 32> C       2.93126900   -0.95977000    0.76875800
| 33> C       2.87194700   -2.02239400    1.67199500
| 34> C       2.53979300   -3.19260100    0.96986300
| 35> C       2.38729900   -2.83470500   -0.36831400
| 36> N       2.64901400   -1.46615400   -0.47038900
| 37> N       2.62656400   -0.76540400   -1.63946800
| 38> C       2.30379400   -1.49681300   -2.67891900
| 39> N       1.97159500   -2.80738700   -2.72984900
| 40> C       1.99588700   -3.46886800   -1.57983600
| 41> N       1.66597600   -4.78896300   -1.58434100
| 42> O       5.63404700    0.92905300    0.70491400
| 43> O       4.44680400    3.31417000    1.20636400
| 44> O      -0.29847500    0.55846600   -1.42868900
| 45> C      -0.61367600   -0.66742800   -0.84899500
| 46> C      -1.09971800   -1.65904000   -1.69665900
| 47> C      -1.37165400   -2.92441300   -1.17932300
| 48> C      -1.16426500   -3.19120300    0.17615700
| 49> C      -0.67650400   -2.18418900    1.01024400
| 50> C      -0.39087100   -0.91596200    0.50455100
| 51> H      -2.30981100    0.71445600    4.33716400
| 52> H      -2.29959400   -0.94576400    3.73025000
| 53> H      -1.63910500    0.37227100    2.73760800
| 54> H      -4.60081100    0.24275600    3.54426000
| 55> H      -3.83231500    1.39200800    2.45465900
| 56> H      -3.21372600   -0.66136200    0.98175100
| 57> H      -3.70189500   -2.37139100    2.69504400
| 58> H      -5.39784500   -1.92433900    2.70510600
| 59> H      -5.44742800   -0.59780200   -0.13169700
| 60> H      -6.10844500    0.26242200    1.28806300
| 61> H      -4.87224800   -4.00298500    1.31878200
| 62> H      -5.67641100   -2.75486400    0.36740000
| 63> H      -3.92916800   -2.98518200    0.21413800
| 64> H      -3.18955100    3.17956500   -0.14216300
| 65> H      -3.86299600    4.48374900   -2.16580400
| 66> H      -4.43996800    2.99158900   -2.94406700
| 67> H      -5.25321800    3.59728900   -1.48810300
| 68> H      -2.05753700    2.19291700   -2.67975100
| 69> H       2.00802800    1.58143100   -1.85942700
| 70> H       2.34754900    3.33840100   -1.95949900
| 71> H       1.95625600    3.33472400    0.61667100
| 72> H       4.36004100    3.09257200   -0.78805700
| 73> H       4.33119000    0.65944400   -0.83013000
| 74> H       3.94511000    3.06898900    2.00321100
| 75> H       5.78299000    1.69314000    1.29454900
| 76> H       3.05338800   -1.93229400    2.73370300
| 77> H       2.41895200   -4.18312700    1.38447400
| 78> H       2.28825500   -0.95835100   -3.62180300
| 79> H       1.22161700   -5.11103600   -2.43441100
| 80> H       1.31812500   -5.19050600   -0.72537200
| 81> H      -1.26724000   -1.42598400   -2.74148800
| 82> H       0.00080400   -0.13001500    1.13383700
| 83> H      -1.75619900   -3.69781700   -1.83814200
| 84> H      -1.39061800   -4.17389300    0.58095000
| 85> H      -0.50465900   -2.38125900    2.06344600
| 86> *
| 87> 
| 88>                          ****END OF INPUT****
================================================================================

                       ****************************
                       * Single Point Calculation *
                       ****************************

---------------------------------
CARTESIAN COORDINATES (ANGSTROEM)
---------------------------------
  C     -2.434943    0.102128    3.437199
  C     -3.802026    0.351740    2.795415
  C     -4.114172   -0.572570    1.601762
  C     -4.509067   -1.987610    2.059914
  C     -4.761984   -2.986172    0.924589
  C     -5.202117    0.040141    0.717903
  O     -4.764638    1.328295    0.211193
  C     -3.910991    1.293950   -0.822774
  O     -3.632725    0.302114   -1.465364
  C     -3.327118    2.678717   -1.101551
  C     -4.282420    3.491195   -1.980828
  N     -2.016195    2.574278   -1.739192
  P     -0.731646    2.015918   -0.829189
  O     -0.991994    2.082122    0.626990
  O      0.458375    2.906123   -1.444600
  C      1.849441    2.553010   -1.385446
  C      2.403731    2.520514    0.036855
  C      3.935228    2.595236    0.086451
  C      4.364319    1.118198    0.159030
  C      3.191782    0.491767    1.000957
  O      2.034824    1.267687    0.660832
  C      3.479017    0.712534    2.441753
  N      3.681836    0.992897    3.549675
  C      2.931269   -0.959770    0.768758
  C      2.871947   -2.022394    1.671995
  C      2.539793   -3.192601    0.969863
  C      2.387299   -2.834705   -0.368314
  N      2.649014   -1.466154   -0.470389
  N      2.626564   -0.765404   -1.639468
  C      2.303794   -1.496813   -2.678919
  N      1.971595   -2.807387   -2.729849
  C      1.995887   -3.468868   -1.579836
  N      1.665976   -4.788963   -1.584341
  O      5.634047    0.929053    0.704914
  O      4.446804    3.314170    1.206364
  O     -0.298475    0.558466   -1.428689
  C     -0.613676   -0.667428   -0.848995
  C     -1.099718   -1.659040   -1.696659
  C     -1.371654   -2.924413   -1.179323
  C     -1.164265   -3.191203    0.176157
  C     -0.676504   -2.184189    1.010244
  C     -0.390871   -0.915962    0.504551
  H     -2.309811    0.714456    4.337164
  H     -2.299594   -0.945764    3.730250
  H     -1.639105    0.372271    2.737608
  H     -4.600811    0.242756    3.544260
  H     -3.832315    1.392008    2.454659
  H     -3.213726   -0.661362    0.981751
  H     -3.701895   -2.371391    2.695044
  H     -5.397845   -1.924339    2.705106
  H     -5.447428   -0.597802   -0.131697
  H     -6.108445    0.262422    1.288063
  H     -4.872248   -4.002985    1.318782
  H     -5.676411   -2.754864    0.367400
  H     -3.929168   -2.985182    0.214138
  H     -3.189551    3.179565   -0.142163
  H     -3.862996    4.483749   -2.165804
  H     -4.439968    2.991589   -2.944067
  H     -5.253218    3.597289   -1.488103
  H     -2.057537    2.192917   -2.679751
  H      2.008028    1.581431   -1.859427
  H      2.347549    3.338401   -1.959499
  H      1.956256    3.334724    0.616671
  H      4.360041    3.092572   -0.788057
  H      4.331190    0.659444   -0.830130
  H      3.945110    3.068989    2.003211
  H      5.782990    1.693140    1.294549
  H      3.053388   -1.932294    2.733703
  H      2.418952   -4.183127    1.384474
  H      2.288255   -0.958351   -3.621803
  H      1.221617   -5.111036   -2.434411
  H      1.318125   -5.190506   -0.725372
  H     -1.267240   -1.425984   -2.741488
  H      0.000804   -0.130015    1.133837
  H     -1.756199   -3.697817   -1.838142
  H     -1.390618   -4.173893    0.580950
  H     -0.504659   -2.381259    2.063446

----------------------------
CARTESIAN COORDINATES (A.U.)
----------------------------
  NO LB      ZA    FRAG     MASS         X           Y           Z
   0 C     6.0000    0    12.011   -4.601375    0.192994    6.495365
   1 C     6.0000    0    12.011   -7.184788    0.664692    5.282569
   2 C     6.0000    0    12.011   -7.774658   -1.082000    3.026892
   3 C     6.0000    0    12.011   -8.520902   -3.756039    3.892673
   4 C     6.0000    0    12.011   -8.998846   -5.643047    1.747220
   5 C     6.0000    0    12.011   -9.830576    0.075855    1.356640
   6 O     8.0000    0    15.999   -9.003861    2.510114    0.399097
   7 C     6.0000    0    12.011   -7.390702    2.445211   -1.554818
   8 O     8.0000    0    15.999   -6.864855    0.570913   -2.769137
   9 C     6.0000    0    12.011   -6.287342    5.062042   -2.081630
  10 C     6.0000    0    12.011   -8.092601    6.597402   -3.743222
  11 N     7.0000    0    14.007   -3.810056    4.864680   -3.286597
  12 P    15.0000    0    30.974   -1.382611    3.809533   -1.566940
  13 O     8.0000    0    15.999   -1.874597    3.934640    1.184839
  14 O     8.0000    0    15.999    0.866203    5.491777   -2.729898
  15 C     6.0000    0    12.011    3.494937    4.824490   -2.618114
  16 C     6.0000    0    12.011    4.542393    4.763081    0.069646
  17 C     6.0000    0    12.011    7.436503    4.904285    0.163369
  18 C     6.0000    0    12.011    8.247368    2.113088    0.300523
  19 C     6.0000    0    12.011    6.031594    0.929305    1.891535
  20 O     8.0000    0    15.999    3.845260    2.395581    1.248792
  21 C     6.0000    0    12.011    6.574389    1.346494    4.614244
  22 N     7.0000    0    14.007    6.957662    1.876303    6.707914
  23 C     6.0000    0    12.011    5.539296   -1.813702    1.452742
  24 C     6.0000    0    12.011    5.427193   -3.821771    3.159613
  25 C     6.0000    0    12.011    4.799513   -6.033142    1.832775
  26 C     6.0000    0    12.011    4.511341   -5.356816   -0.696013
  27 N     7.0000    0    14.007    5.005911   -2.770630   -0.888906
  28 N     7.0000    0    14.007    4.963487   -1.446404   -3.098146
  29 C     6.0000    0    12.011    4.353540   -2.828567   -5.062423
  30 N     7.0000    0    14.007    3.725775   -5.305193   -5.158667
  31 C     6.0000    0    12.011    3.771680   -6.555211   -2.985457
  32 N     7.0000    0    14.007    3.148238   -9.049829   -2.993971
  33 O     8.0000    0    15.999   10.646806    1.755656    1.332094
  34 O     8.0000    0    15.999    8.403242    6.262874    2.279698
  35 O     8.0000    0    15.999   -0.564036    1.055348   -2.699831
  36 C     6.0000    0    12.011   -1.159680   -1.261256   -1.604368
  37 C     6.0000    0    12.011   -2.078166   -3.135131   -3.206221
  38 C     6.0000    0    12.011   -2.592050   -5.526340   -2.228597
  39 C     6.0000    0    12.011   -2.200142   -6.030500    0.332888
  40 C     6.0000    0    12.011   -1.278407   -4.127519    1.909084
  41 C     6.0000    0    12.011   -0.738639   -1.730917    0.953463
  42 H     1.0000    0     1.008   -4.364910    1.350126    8.196052
  43 H     1.0000    0     1.008   -4.345603   -1.787235    7.049151
  44 H     1.0000    0     1.008   -3.097460    0.703490    5.173329
  45 H     1.0000    0     1.008   -8.694273    0.458742    6.697681
  46 H     1.0000    0     1.008   -7.242026    2.630514    4.638633
  47 H     1.0000    0     1.008   -6.073062   -1.249793    1.855241
  48 H     1.0000    0     1.008   -6.995568   -4.481280    5.092895
  49 H     1.0000    0     1.008  -10.200449   -3.636474    5.111910
  50 H     1.0000    0     1.008  -10.294147   -1.129682   -0.248871
  51 H     1.0000    0     1.008  -11.543288    0.495906    2.434086
  52 H     1.0000    0     1.008   -9.207214   -7.564545    2.492137
  53 H     1.0000    0     1.008  -10.726862   -5.205938    0.694285
  54 H     1.0000    0     1.008   -7.425051   -5.641176    0.404662
  55 H     1.0000    0     1.008   -6.027378    6.008507   -0.268649
  56 H     1.0000    0     1.008   -7.300004    8.473058   -4.092776
  57 H     1.0000    0     1.008   -8.390324    5.653284   -5.563480
  58 H     1.0000    0     1.008   -9.927143    6.797891   -2.812107
  59 H     1.0000    0     1.008   -3.888181    4.144013   -5.063995
  60 H     1.0000    0     1.008    3.794623    2.988471   -3.513808
  61 H     1.0000    0     1.008    4.436225    6.308664   -3.702916
  62 H     1.0000    0     1.008    3.696788    6.301715    1.165339
  63 H     1.0000    0     1.008    8.239283    5.844114   -1.489212
  64 H     1.0000    0     1.008    8.184763    1.246169   -1.568718
  65 H     1.0000    0     1.008    7.455177    5.799549    3.785520
  66 H     1.0000    0     1.008   10.928267    3.199571    2.446343
  67 H     1.0000    0     1.008    5.770067   -3.651506    5.165950
  68 H     1.0000    0     1.008    4.571157   -7.904964    2.616277
  69 H     1.0000    0     1.008    4.324175   -1.811021   -6.844216
  70 H     1.0000    0     1.008    2.308522   -9.658458   -4.600370
  71 H     1.0000    0     1.008    2.490895   -9.808635   -1.370754
  72 H     1.0000    0     1.008   -2.394737   -2.694719   -5.180662
  73 H     1.0000    0     1.008    0.001519   -0.245693    2.142641
  74 H     1.0000    0     1.008   -3.318735   -6.987861   -3.473585
  75 H     1.0000    0     1.008   -2.627887   -7.887515    1.097836
  76 H     1.0000    0     1.008   -0.953667   -4.499927    3.899348



           ************************************************************
           *        Program running with 36 parallel MPI-processes    *
           *              working on a common directory               *
           ************************************************************
 One Electron integrals                  ... done
 Pre-screening matrix                    ... done


           ************************************************************
           *        Program running with 36 parallel MPI-processes    *
           *              working on a common directory               *
           ************************************************************

Diagonalization of the overlap matrix:
Smallest eigenvalue                        ... 2.387e-06
Time for diagonalization                   ...    1.907 sec
Threshold for overlap eigenvalues          ... 1.000e-08
Number of eigenvalues below threshold      ... 0
Time for construction of square roots      ...    2.240 sec
Total time needed                          ...    4.204 sec

-------------------
DFT GRID GENERATION
-------------------

General Integration Accuracy     IntAcc      ...  4.670
Radial Grid Type                 RadialGrid  ... Gauss-Chebyshev
Angular Grid (max. acc.)         AngularGrid ... Lebedev-302
Angular grid pruning method      GridPruning ... 3 (G Style)
Weight generation scheme         WeightScheme... Becke
Basis function cutoff            BFCut       ...    1.0000e-11
Integration weight cutoff        WCut        ...    1.0000e-14
Grids for H and He will be reduced by one unit

# of grid points (after initial pruning)     ... 380328 (   0.0 sec)
# of grid points (after weights+screening)   ... 317286 (   0.8 sec)
nearest neighbour list constructed           ...    0.0 sec
Grid point re-assignment to atoms done       ...    0.1 sec
Grid point division into batches done        ...    1.1 sec
Reduced shell lists constructed in    1.8 sec

Total number of grid points                  ...   317286
Total number of batches                      ...     4994
Average number of points per batch           ...       63
Average number of grid points per atom       ...     4121
Average number of shells per batch           ...   320.58 (29.99%)
Average number of basis functions per batch  ...   922.52 (26.69%)
Average number of large shells per batch     ...   191.91 (59.86%)
Average number of large basis fcns per batch ...   560.77 (60.79%)
Maximum spatial batch extension              ...   2.00,  2.35,  1.81 au
Average spatial batch extension              ...   0.03,  0.03,  0.03 au

Time for grid setup =    3.356 sec

Loading Hartree-Fock densities                     ... done
Calculating cut-offs                               ... done
Setting up the integral package                    ... done
Initializing the effective Hamiltonian             ... done
Starting the Coulomb interaction                   ... done (   1.8 sec)
Reading the grid                                   ... done
Mapping shells                                     ... done
Starting the XC term evaluation                    ... done (   3.4 sec)
  promolecular density results
     # of electrons  =    317.983617574
     EX              =   -277.744649648
     EC              =    -20.763019631
     EX+EC           =   -298.507669279
Transforming the Hamiltonian                       ... done (   1.5 sec)
Diagonalizing the Hamiltonian                      ... done (   2.2 sec)
Back transforming the eigenvectors                 ... done (   0.8 sec)
Now organizing SCF variables                       ... done
--------------------
COSX GRID GENERATION
--------------------

General Integration Accuracy     IntAcc      ...  3.340
Radial Grid Type                 RadialGrid  ... Gauss-Chebyshev
Angular Grid (max. acc.)         AngularGrid ... Lebedev-50
Angular grid pruning method      GridPruning ... 3 (G Style)
Weight generation scheme         WeightScheme... Becke
Basis function cutoff            BFCut       ...    1.0000e-11
Integration weight cutoff        WCut        ...    1.0000e-14
Grids for H and He will be reduced by one unit

# of grid points (after initial pruning)     ...  35602 (   0.0 sec)
# of grid points (after weights+screening)   ...  31088 (   0.1 sec)
nearest neighbour list constructed           ...    0.0 sec
Grid point re-assignment to atoms done       ...    0.0 sec
Grid point division into batches done        ...    0.0 sec
Reduced shell lists constructed in    0.1 sec

Total number of grid points                  ...    31088
Total number of batches                      ...      529
Average number of points per batch           ...       58
Average number of grid points per atom       ...      404
Average number of shells per batch           ...   342.06 (32.00%)
Average number of basis functions per batch  ...  1002.44 (29.00%)
Average number of large shells per batch     ...   201.69 (58.96%)
Average number of large basis fcns per batch ...   598.69 (59.72%)
Maximum spatial batch extension              ...   3.25,  3.19,  2.75 au
Average spatial batch extension              ...   0.06,  0.05,  0.06 au

Overlap Fitting                  UseSFitting ... on
Constructing numerical overlap ... done (      0.7 sec)
Inverting numerical overlap    ... done (      0.8 sec)
Obtaining analytic overlap     ... done (      0.1 sec)
Final contraction and storage  ... done (      3.3 sec)


General Integration Accuracy     IntAcc      ...  4.010
Radial Grid Type                 RadialGrid  ... Gauss-Chebyshev
Angular Grid (max. acc.)         AngularGrid ... Lebedev-50
Angular grid pruning method      GridPruning ... 3 (G Style)
Weight generation scheme         WeightScheme... Becke
Basis function cutoff            BFCut       ...    1.0000e-11
Integration weight cutoff        WCut        ...    1.0000e-14
Grids for H and He will be reduced by one unit

# of grid points (after initial pruning)     ...  54842 (   0.0 sec)
# of grid points (after weights+screening)   ...  47628 (   0.1 sec)
nearest neighbour list constructed           ...    0.0 sec
Grid point re-assignment to atoms done       ...    0.0 sec
Grid point division into batches done        ...    0.0 sec
Reduced shell lists constructed in    0.2 sec

Total number of grid points                  ...    47628
Total number of batches                      ...      785
Average number of points per batch           ...       60
Average number of grid points per atom       ...      619
Average number of shells per batch           ...   336.61 (31.49%)
Average number of basis functions per batch  ...   979.39 (28.33%)
Average number of large shells per batch     ...   197.74 (58.74%)
Average number of large basis fcns per batch ...   580.96 (59.32%)
Maximum spatial batch extension              ...   2.52,  2.49,  2.50 au
Average spatial batch extension              ...   0.05,  0.04,  0.05 au

Overlap Fitting                  UseSFitting ... on
Constructing numerical overlap ... done (      0.9 sec)
Inverting numerical overlap    ... done (      0.9 sec)
Obtaining analytic overlap     ... done (      0.1 sec)
Final contraction and storage  ... done (      4.1 sec)


General Integration Accuracy     IntAcc      ...  4.340
Radial Grid Type                 RadialGrid  ... Gauss-Chebyshev
Angular Grid (max. acc.)         AngularGrid ... Lebedev-194
Angular grid pruning method      GridPruning ... 3 (G Style)
Weight generation scheme         WeightScheme... Becke
Basis function cutoff            BFCut       ...    1.0000e-11
Integration weight cutoff        WCut        ...    1.0000e-14
Grids for H and He will be reduced by one unit

# of grid points (after initial pruning)     ... 192412 (   0.0 sec)
# of grid points (after weights+screening)   ... 163054 (   0.4 sec)
nearest neighbour list constructed           ...    0.0 sec
Grid point re-assignment to atoms done       ...    0.1 sec
Grid point division into batches done        ...    0.3 sec
Reduced shell lists constructed in    0.7 sec

Total number of grid points                  ...   163054
Total number of batches                      ...     2581
Average number of points per batch           ...       63
Average number of grid points per atom       ...     2118
Average number of shells per batch           ...   327.07 (30.60%)
Average number of basis functions per batch  ...   945.59 (27.35%)
Average number of large shells per batch     ...   195.73 (59.84%)
Average number of large basis fcns per batch ...   574.33 (60.74%)
Maximum spatial batch extension              ...   2.23,  2.21,  2.47 au
Average spatial batch extension              ...   0.03,  0.03,  0.03 au

Overlap Fitting                  UseSFitting ... on
Constructing numerical overlap ... done (      2.0 sec)
Inverting numerical overlap    ... done (      0.9 sec)
Obtaining analytic overlap     ... done (      0.1 sec)
Final contraction and storage  ... done (      4.1 sec)

Time for X-Grid setup             =   20.725 sec

--------------------
CPCM SOLVATION MODEL
--------------------
CPCM parameters:
  Epsilon                                         ...      78.3550
  Refrac                                          ...       1.0000
  Rsolv                                           ...       1.3000
  Surface type                                    ...    GEPOL SES
  Epsilon function type                           ...         CPCM
Solvent:                                     ... WATER
SMD-CDS solvent descriptors:
  Soln                                       ...    1.3328
  Soln25                                     ...    1.3323
  Sola                                       ...    0.0000
  Solb                                       ...    0.0000
  Solg                                       ...    0.0000
  Solc                                       ...    0.0000
  Solh                                       ...    0.0000
Radii:
 Radius for C  used is    3.4960 Bohr (=   1.8500 Ang.)
 Radius for O  used is    2.8724 Bohr (=   1.5200 Ang.)
 Radius for N  used is    3.5716 Bohr (=   1.8900 Ang.)
 Radius for P  used is    4.0062 Bohr (=   2.1200 Ang.)
 Radius for H  used is    2.2677 Bohr (=   1.2000 Ang.)
Calculating surface                               ...        done! (  0.9s)
GEPOL surface points                              ...         2809
GEPOL Volume                                      ...    4150.5193
GEPOL Surface-area                                ...    1721.4509
Calculating surface distance matrix               ...        done! (  0.1s)
Performing Cholesky decomposition & store         ...        done! (  0.5s)
Overall time for CPCM initialization              ...                 1.6s
--------------
SCF ITERATIONS
--------------
ITER       Energy         Delta-E        Max-DP      RMS-DP      [F,P]     Damp
               ***  Starting incremental Fock matrix formation  ***
  0  -2317.5581915930   0.000000000000 0.08876796  0.00031248  0.4610070 0.7000
  1  -2318.3022363709  -0.744044777867 0.07392101  0.00025255  0.2103062 0.7000
                               ***Turning on DIIS***
  2  -2318.6465294627  -0.344293091853 0.17493607  0.00058015  0.0803126 0.0000
  3  -2319.2222307042  -0.575701241510 0.05938126  0.00011881  0.0977725 0.0000
  4  -2319.3095152751  -0.087284570887 0.02230522  0.00004615  0.0208805 0.0000
  5  -2319.3123659915  -0.002850716417 0.00961355  0.00001855  0.0113769 0.0000
                      *** Initiating the SOSCF procedure ***
                           *** Shutting down DIIS ***
                      *** Re-Reading the Fockian *** 
                      *** Removing any level shift *** 
ITER      Energy       Delta-E        Grad      Rot      Max-DP    RMS-DP
  6  -2319.31287815  -0.0005121628  0.000387  0.000387  0.004100  0.000008
               *** Restarting incremental Fock matrix formation ***
  7  -2319.31299049  -0.0001123369  0.000256  0.000928  0.034406  0.000115
  8  -2319.31299628  -0.0000057935  0.000276  0.000584  0.012214  0.000043
  9  -2319.31299678  -0.0000004992  0.000175  0.000142  0.010971  0.000039
 10  -2319.31300046  -0.0000036779  0.000028  0.000066  0.002331  0.000008
 11  -2319.31300102  -0.0000005579  0.000025  0.000050  0.001777  0.000006
 12  -2319.31300073   0.0000002894  0.000006  0.000019  0.000298  0.000001
 13  -2319.31300141  -0.0000006843  0.000005  0.000007  0.000112  0.000000
                  ***Gradient check signals convergence***
              ***Rediagonalizing the Fockian in SOSCF/NRSCF***

               *****************************************************
               *                     SUCCESS                       *
               *           SCF CONVERGED AFTER  14 CYCLES          *
               *****************************************************

Setting up the final grid:

General Integration Accuracy     IntAcc      ...  5.010
Radial Grid Type                 RadialGrid  ... Gauss-Chebyshev
Angular Grid (max. acc.)         AngularGrid ... Lebedev-434
Angular grid pruning method      GridPruning ... 3 (G Style)
Weight generation scheme         WeightScheme... Becke
Basis function cutoff            BFCut       ...    1.0000e-11
Integration weight cutoff        WCut        ...    1.0000e-14
Grids for H and He will be reduced by one unit

# of grid points (after initial pruning)     ... 684974 (   0.0 sec)
# of grid points (after weights+screening)   ... 569867 (   1.4 sec)
nearest neighbour list constructed           ...    0.0 sec
Grid point re-assignment to atoms done       ...    0.2 sec
Grid point division into batches done        ...    3.7 sec
Reduced shell lists constructed in    4.9 sec

Total number of grid points                  ...   569867
Total number of batches                      ...     8946
Average number of points per batch           ...       63
Average number of grid points per atom       ...     7401
Average number of shells per batch           ...   313.24 (29.30%)
Average number of basis functions per batch  ...   896.94 (25.95%)
Average number of large shells per batch     ...   187.32 (59.80%)
Average number of large basis fcns per batch ...   545.86 (60.86%)
Maximum spatial batch extension              ...   3.56,  4.00,  5.38 au
Average spatial batch extension              ...   0.02,  0.02,  0.02 au

Final grid set up in    7.3 sec
Final integration                            ... done (  13.6 sec)
Change in XC energy                          ...     0.002334231
Integrated number of electrons               ...   318.000105447
Previous integrated no of electrons          ...   318.000423326
Old exchange energy                            =   -140.532268502 Eh
New exchange energy                            =   -140.531405316 Eh
Exchange energy change after final integration =      0.000863185 Eh
Total energy after final integration           =  -2319.309804308 Eh
Final COS-X integration done in                =   327.260 sec

SMD CDS free energy correction energy :                11.14233     Kcal/mol
Total Energy after SMD CDS correction =             -2319.292047877 Eh
Total Energy       :        -2319.29204788 Eh          -63111.14513 eV
  Last Energy change         ...   -3.0987e-07  Tolerance :   1.0000e-08
  Last MAX-Density change    ...    2.6645e-15  Tolerance :   1.0000e-07
             **** THE GBW FILE WAS UPDATED (orcaSP.gbw) ****
             **** DENSITY FILE WAS UPDATED (orcaSP.scfp) ****
             **** ENERGY FILE WAS UPDATED (orcaSP.en.tmp) ****
             **** THE GBW FILE WAS UPDATED (orcaSP.gbw) ****
             **** DENSITY FILE WAS UPDATED (orcaSP.scfp) ****
----------------
ORBITAL ENERGIES
----------------

  NO   OCC          E(Eh)            E(eV) 
   0   2.0000     -78.283925     -2130.2139 
   1   2.0000     -19.714682      -536.4638 
   2   2.0000     -19.709283      -536.3169 
   3   2.0000     -19.705979      -536.2270 
   4   2.0000     -19.701056      -536.0930 
   5   2.0000     -19.693010      -535.8741 
   6   2.0000     -19.689395      -535.7757 
   7   2.0000     -19.664958      -535.1107 
   8   2.0000     -19.640881      -534.4556 
   9   2.0000     -14.895456      -405.3260 
  10   2.0000     -14.825249      -403.4155 
  11   2.0000     -14.816074      -403.1659 
  12   2.0000     -14.807660      -402.9369 
  13   2.0000     -14.798104      -402.6769 
  14   2.0000     -14.785556      -402.3354 
  15   2.0000     -10.711925      -291.4863 
  16   2.0000     -10.699248      -291.1413 
  17   2.0000     -10.681176      -290.6496 
  18   2.0000     -10.647445      -289.7317 
  19   2.0000     -10.644618      -289.6548 
  20   2.0000     -10.643982      -289.6375 
  21   2.0000     -10.641797      -289.5780 
  22   2.0000     -10.638746      -289.4950 
  23   2.0000     -10.637654      -289.4653 
  24   2.0000     -10.632720      -289.3310 
  25   2.0000     -10.625791      -289.1425 
  26   2.0000     -10.625139      -289.1247 
  27   2.0000     -10.620640      -289.0023 
  28   2.0000     -10.616054      -288.8775 
  29   2.0000     -10.580801      -287.9182 
  30   2.0000     -10.577057      -287.8164 
  31   2.0000     -10.571464      -287.6642 
  32   2.0000     -10.570458      -287.6368 
  33   2.0000     -10.569157      -287.6014 
  34   2.0000     -10.566612      -287.5321 
  35   2.0000     -10.566008      -287.5157 
  36   2.0000     -10.564089      -287.4635 
  37   2.0000     -10.562105      -287.4095 
  38   2.0000     -10.555711      -287.2355 
  39   2.0000     -10.551770      -287.1283 
  40   2.0000     -10.544688      -286.9355 
  41   2.0000     -10.542560      -286.8776 
  42   2.0000      -7.008336      -190.7065 
  43   2.0000      -5.076015      -138.1254 
  44   2.0000      -5.074768      -138.0915 
  45   2.0000      -5.073340      -138.0526 
  46   2.0000      -1.239153       -33.7191 
  47   2.0000      -1.219894       -33.1950 
  48   2.0000      -1.208231       -32.8776 
  49   2.0000      -1.187042       -32.3010 
  50   2.0000      -1.179307       -32.0906 
  51   2.0000      -1.170277       -31.8448 
  52   2.0000      -1.159232       -31.5443 
  53   2.0000      -1.151019       -31.3208 
  54   2.0000      -1.107133       -30.1266 
  55   2.0000      -1.087300       -29.5869 
  56   2.0000      -1.045842       -28.4588 
  57   2.0000      -1.035936       -28.1893 
  58   2.0000      -1.026519       -27.9330 
  59   2.0000      -0.979651       -26.6576 
  60   2.0000      -0.957265       -26.0485 
  61   2.0000      -0.920910       -25.0592 
  62   2.0000      -0.914733       -24.8912 
  63   2.0000      -0.894513       -24.3409 
  64   2.0000      -0.871608       -23.7177 
  65   2.0000      -0.868380       -23.6298 
  66   2.0000      -0.849331       -23.1115 
  67   2.0000      -0.843388       -22.9498 
  68   2.0000      -0.838476       -22.8161 
  69   2.0000      -0.835924       -22.7467 
  70   2.0000      -0.813083       -22.1251 
  71   2.0000      -0.802944       -21.8492 
  72   2.0000      -0.754049       -20.5187 
  73   2.0000      -0.752371       -20.4731 
  74   2.0000      -0.741125       -20.1670 
  75   2.0000      -0.723309       -19.6822 
  76   2.0000      -0.712374       -19.3847 
  77   2.0000      -0.711612       -19.3640 
  78   2.0000      -0.706700       -19.2303 
  79   2.0000      -0.690333       -18.7849 
  80   2.0000      -0.686236       -18.6734 
  81   2.0000      -0.682226       -18.5643 
  82   2.0000      -0.660806       -17.9815 
  83   2.0000      -0.657215       -17.8837 
  84   2.0000      -0.648560       -17.6482 
  85   2.0000      -0.635752       -17.2997 
  86   2.0000      -0.625500       -17.0207 
  87   2.0000      -0.621140       -16.9021 
  88   2.0000      -0.610394       -16.6097 
  89   2.0000      -0.603676       -16.4268 
  90   2.0000      -0.596236       -16.2244 
  91   2.0000      -0.589821       -16.0498 
  92   2.0000      -0.578955       -15.7542 
  93   2.0000      -0.572486       -15.5781 
  94   2.0000      -0.568548       -15.4710 
  95   2.0000      -0.564946       -15.3730 
  96   2.0000      -0.558744       -15.2042 
  97   2.0000      -0.556000       -15.1295 
  98   2.0000      -0.544659       -14.8209 
  99   2.0000      -0.543412       -14.7870 
 100   2.0000      -0.540373       -14.7043 
 101   2.0000      -0.536815       -14.6075 
 102   2.0000      -0.528828       -14.3901 
 103   2.0000      -0.523942       -14.2572 
 104   2.0000      -0.522044       -14.2055 
 105   2.0000      -0.517080       -14.0705 
 106   2.0000      -0.509000       -13.8506 
 107   2.0000      -0.507215       -13.8020 
 108   2.0000      -0.503766       -13.7082 
 109   2.0000      -0.497346       -13.5335 
 110   2.0000      -0.495378       -13.4799 
 111   2.0000      -0.493393       -13.4259 
 112   2.0000      -0.489588       -13.3224 
 113   2.0000      -0.487430       -13.2637 
 114   2.0000      -0.485479       -13.2106 
 115   2.0000      -0.481722       -13.1083 
 116   2.0000      -0.477711       -12.9992 
 117   2.0000      -0.473035       -12.8719 
 118   2.0000      -0.471830       -12.8391 
 119   2.0000      -0.468262       -12.7421 
 120   2.0000      -0.462202       -12.5772 
 121   2.0000      -0.458884       -12.4869 
 122   2.0000      -0.446576       -12.1519 
 123   2.0000      -0.444685       -12.1005 
 124   2.0000      -0.438166       -11.9231 
 125   2.0000      -0.436084       -11.8664 
 126   2.0000      -0.433503       -11.7962 
 127   2.0000      -0.429729       -11.6935 
 128   2.0000      -0.426289       -11.5999 
 129   2.0000      -0.423355       -11.5201 
 130   2.0000      -0.421987       -11.4829 
 131   2.0000      -0.417989       -11.3741 
 132   2.0000      -0.416299       -11.3281 
 133   2.0000      -0.414574       -11.2811 
 134   2.0000      -0.410262       -11.1638 
 135   2.0000      -0.405866       -11.0442 
 136   2.0000      -0.404084       -10.9957 
 137   2.0000      -0.401186       -10.9168 
 138   2.0000      -0.400888       -10.9087 
 139   2.0000      -0.396005       -10.7758 
 140   2.0000      -0.395497       -10.7620 
 141   2.0000      -0.390307       -10.6208 
 142   2.0000      -0.385190       -10.4815 
 143   2.0000      -0.382641       -10.4122 
 144   2.0000      -0.380490       -10.3537 
 145   2.0000      -0.373452       -10.1622 
 146   2.0000      -0.364833        -9.9276 
 147   2.0000      -0.358434        -9.7535 
 148   2.0000      -0.353622        -9.6225 
 149   2.0000      -0.351823        -9.5736 
 150   2.0000      -0.349222        -9.5028 
 151   2.0000      -0.345942        -9.4136 
 152   2.0000      -0.337484        -9.1834 
 153   2.0000      -0.332674        -9.0525 
 154   2.0000      -0.327377        -8.9084 
 155   2.0000      -0.286377        -7.7927 
 156   2.0000      -0.281696        -7.6653 
 157   2.0000      -0.276162        -7.5147 
 158   2.0000      -0.255520        -6.9530 
 159   0.0000      -0.007639        -0.2079 
 160   0.0000       0.020213         0.5500 
 161   0.0000       0.033699         0.9170 
 162   0.0000       0.039436         1.0731 
 163   0.0000       0.045181         1.2294 
 164   0.0000       0.047201         1.2844 
 165   0.0000       0.048613         1.3228 
 166   0.0000       0.052816         1.4372 
 167   0.0000       0.054263         1.4766 
 168   0.0000       0.055811         1.5187 
 169   0.0000       0.061872         1.6836 
 170   0.0000       0.067266         1.8304 
 171   0.0000       0.070136         1.9085 
 172   0.0000       0.073739         2.0066 
 173   0.0000       0.077062         2.0970 
 174   0.0000       0.078182         2.1274 
 175   0.0000       0.084414         2.2970 
 176   0.0000       0.086329         2.3491 
 177   0.0000       0.089279         2.4294 
 178   0.0000       0.092859         2.5268 
 179   0.0000       0.094111         2.5609 
 180   0.0000       0.098570         2.6822 
 181   0.0000       0.100113         2.7242 
 182   0.0000       0.103802         2.8246 
 183   0.0000       0.106757         2.9050 
 184   0.0000       0.108433         2.9506 
 185   0.0000       0.111928         3.0457 
 186   0.0000       0.115397         3.1401 
 187   0.0000       0.118689         3.2297 
 188   0.0000       0.124044         3.3754 
 189   0.0000       0.125056         3.4029 
 190   0.0000       0.128508         3.4969 
 191   0.0000       0.129556         3.5254 
 192   0.0000       0.134208         3.6520 
 193   0.0000       0.135535         3.6881 
 194   0.0000       0.136844         3.7237 
 195   0.0000       0.137859         3.7513 
 196   0.0000       0.140814         3.8317 
 197   0.0000       0.142183         3.8690 
 198   0.0000       0.144331         3.9274 
 199   0.0000       0.146881         3.9968 
 200   0.0000       0.151258         4.1159 
 201   0.0000       0.153658         4.1812 
 202   0.0000       0.155585         4.2337 
 203   0.0000       0.158042         4.3005 
 204   0.0000       0.160599         4.3701 
 205   0.0000       0.162708         4.4275 
 206   0.0000       0.169572         4.6143 
 207   0.0000       0.172347         4.6898 
 208   0.0000       0.174460         4.7473 
 209   0.0000       0.174896         4.7592 
 210   0.0000       0.177263         4.8236 
 211   0.0000       0.182643         4.9700 
 212   0.0000       0.185412         5.0453 
 213   0.0000       0.186619         5.0782 
 214   0.0000       0.189051         5.1444 
 215   0.0000       0.190380         5.1805 
 216   0.0000       0.191657         5.2152 
 217   0.0000       0.196246         5.3401 
 218   0.0000       0.198479         5.4009 
 219   0.0000       0.199649         5.4327 
 220   0.0000       0.201446         5.4816 
 221   0.0000       0.203627         5.5410 
 222   0.0000       0.204343         5.5605 
 223   0.0000       0.206953         5.6315 
 224   0.0000       0.208294         5.6680 
 225   0.0000       0.209421         5.6986 
 226   0.0000       0.212855         5.7921 
 227   0.0000       0.216451         5.8899 
 228   0.0000       0.220737         6.0066 
 229   0.0000       0.222490         6.0542 
 230   0.0000       0.225307         6.1309 
 231   0.0000       0.228235         6.2106 
 232   0.0000       0.231192         6.2910 
 233   0.0000       0.232423         6.3246 
 234   0.0000       0.234787         6.3889 
 235   0.0000       0.238667         6.4945 
 236   0.0000       0.240543         6.5455 
 237   0.0000       0.242484         6.5983 
 238   0.0000       0.246381         6.7044 
 239   0.0000       0.246860         6.7174 
 240   0.0000       0.249353         6.7852 
 241   0.0000       0.250253         6.8097 
 242   0.0000       0.252854         6.8805 
 243   0.0000       0.253369         6.8945 
 244   0.0000       0.257374         7.0035 
 245   0.0000       0.258932         7.0459 
 246   0.0000       0.262080         7.1316 
 247   0.0000       0.265335         7.2201 
 248   0.0000       0.266988         7.2651 
 249   0.0000       0.268126         7.2961 
 250   0.0000       0.273073         7.4307 
 251   0.0000       0.275450         7.4954 
 252   0.0000       0.277483         7.5507 
 253   0.0000       0.278450         7.5770 
 254   0.0000       0.283194         7.7061 
 255   0.0000       0.286068         7.7843 
 256   0.0000       0.287301         7.8178 
 257   0.0000       0.290755         7.9118 
 258   0.0000       0.293156         7.9772 
 259   0.0000       0.294839         8.0230 
 260   0.0000       0.297534         8.0963 
 261   0.0000       0.298942         8.1346 
 262   0.0000       0.300241         8.1700 
 263   0.0000       0.303494         8.2585 
 264   0.0000       0.303937         8.2705 
 265   0.0000       0.305993         8.3265 
 266   0.0000       0.308514         8.3951 
 267   0.0000       0.314057         8.5459 
 268   0.0000       0.314715         8.5638 
 269   0.0000       0.316503         8.6125 
 270   0.0000       0.319295         8.6885 
 271   0.0000       0.320471         8.7205 
 272   0.0000       0.321450         8.7471 
 273   0.0000       0.324328         8.8254 
 274   0.0000       0.325207         8.8493 
 275   0.0000       0.326414         8.8822 
 276   0.0000       0.328445         8.9374 
 277   0.0000       0.330496         8.9932 
 278   0.0000       0.332352         9.0438 
 279   0.0000       0.333451         9.0737 
 280   0.0000       0.334033         9.0895 
 281   0.0000       0.338345         9.2068 
 282   0.0000       0.339427         9.2363 
 283   0.0000       0.340408         9.2630 
 284   0.0000       0.341816         9.3013 
 285   0.0000       0.344178         9.3656 
 286   0.0000       0.348038         9.4706 
 287   0.0000       0.349948         9.5226 
 288   0.0000       0.351765         9.5720 
 289   0.0000       0.351969         9.5776 
 290   0.0000       0.352957         9.6044 
 291   0.0000       0.354148         9.6369 
 292   0.0000       0.357080         9.7167 
 293   0.0000       0.357883         9.7385 
 294   0.0000       0.360657         9.8140 
 295   0.0000       0.362201         9.8560 
 296   0.0000       0.364912         9.9298 
 297   0.0000       0.365752         9.9526 
 298   0.0000       0.367692        10.0054 
 299   0.0000       0.369696        10.0599 
 300   0.0000       0.371062        10.0971 
 301   0.0000       0.372734        10.1426 
 302   0.0000       0.375117        10.2075 
 303   0.0000       0.376087        10.2338 
 304   0.0000       0.379246        10.3198 
 305   0.0000       0.379633        10.3303 
 306   0.0000       0.381679        10.3860 
 307   0.0000       0.383419        10.4334 
 308   0.0000       0.384258        10.4562 
 309   0.0000       0.386269        10.5109 
 310   0.0000       0.388187        10.5631 
 311   0.0000       0.389453        10.5976 
 312   0.0000       0.390882        10.6364 
 313   0.0000       0.392204        10.6724 
 314   0.0000       0.396001        10.7757 
 315   0.0000       0.398881        10.8541 
 316   0.0000       0.400729        10.9044 
 317   0.0000       0.403428        10.9778 
 318   0.0000       0.404555        11.0085 
 319   0.0000       0.405777        11.0418 
 320   0.0000       0.408251        11.1091 
 321   0.0000       0.410573        11.1723 
 322   0.0000       0.412021        11.2117 
 323   0.0000       0.414866        11.2891 
 324   0.0000       0.415237        11.2992 
 325   0.0000       0.418503        11.3881 
 326   0.0000       0.419696        11.4205 
 327   0.0000       0.422775        11.5043 
 328   0.0000       0.425785        11.5862 
 329   0.0000       0.427173        11.6240 
 330   0.0000       0.430607        11.7174 
 331   0.0000       0.431346        11.7375 
 332   0.0000       0.433555        11.7976 
 333   0.0000       0.436552        11.8792 
 334   0.0000       0.438868        11.9422 
 335   0.0000       0.441027        12.0009 
 336   0.0000       0.442295        12.0355 
 337   0.0000       0.445525        12.1234 
 338   0.0000       0.447188        12.1686 
 339   0.0000       0.448948        12.2165 
 340   0.0000       0.452060        12.3012 
 341   0.0000       0.454803        12.3758 
 342   0.0000       0.456942        12.4340 
 343   0.0000       0.458639        12.4802 
 344   0.0000       0.460507        12.5310 
 345   0.0000       0.461159        12.5488 
 346   0.0000       0.463486        12.6121 
 347   0.0000       0.465906        12.6780 
 348   0.0000       0.467884        12.7318 
 349   0.0000       0.468567        12.7504 
 350   0.0000       0.473114        12.8741 
 351   0.0000       0.475191        12.9306 
 352   0.0000       0.475531        12.9399 
 353   0.0000       0.479032        13.0351 
 354   0.0000       0.480662        13.0795 
 355   0.0000       0.484482        13.1834 
 356   0.0000       0.486640        13.2422 
 357   0.0000       0.488329        13.2881 
 358   0.0000       0.489531        13.3208 
 359   0.0000       0.492773        13.4090 
 360   0.0000       0.496122        13.5002 
 361   0.0000       0.499007        13.5787 
 362   0.0000       0.499685        13.5971 
 363   0.0000       0.502844        13.6831 
 364   0.0000       0.505250        13.7485 
 365   0.0000       0.506691        13.7878 
 366   0.0000       0.509176        13.8554 
 367   0.0000       0.513402        13.9704 
 368   0.0000       0.513926        13.9846 
 369   0.0000       0.517772        14.0893 
 370   0.0000       0.519756        14.1433 
 371   0.0000       0.524619        14.2756 
 372   0.0000       0.528752        14.3881 
 373   0.0000       0.531895        14.4736 
 374   0.0000       0.534522        14.5451 
 375   0.0000       0.535593        14.5742 
 376   0.0000       0.538289        14.6476 
 377   0.0000       0.542508        14.7624 
 378   0.0000       0.545656        14.8481 
 379   0.0000       0.546869        14.8811 
 380   0.0000       0.550893        14.9906 
 381   0.0000       0.551509        15.0073 
 382   0.0000       0.552451        15.0330 
 383   0.0000       0.555674        15.1207 
 384   0.0000       0.559606        15.2277 
 385   0.0000       0.561270        15.2729 
 386   0.0000       0.568069        15.4580 
 387   0.0000       0.568443        15.4681 
 388   0.0000       0.571298        15.5458 
 389   0.0000       0.571731        15.5576 
 390   0.0000       0.572188        15.5700 
 391   0.0000       0.574519        15.6335 
 392   0.0000       0.575326        15.6554 
 393   0.0000       0.578628        15.7453 
 394   0.0000       0.581571        15.8254 
 395   0.0000       0.584885        15.9155 
 396   0.0000       0.585412        15.9299 
 397   0.0000       0.591528        16.0963 
 398   0.0000       0.592557        16.1243 
 399   0.0000       0.594198        16.1689 
 400   0.0000       0.597640        16.2626 
 401   0.0000       0.599511        16.3135 
 402   0.0000       0.600615        16.3436 
 403   0.0000       0.602750        16.4017 
 404   0.0000       0.607513        16.5313 
 405   0.0000       0.608451        16.5568 
 406   0.0000       0.611137        16.6299 
 407   0.0000       0.614173        16.7125 
 408   0.0000       0.615461        16.7475 
 409   0.0000       0.616995        16.7893 
 410   0.0000       0.622351        16.9350 
 411   0.0000       0.623151        16.9568 
 412   0.0000       0.625397        17.0179 
 413   0.0000       0.631477        17.1834 
 414   0.0000       0.632610        17.2142 
 415   0.0000       0.637138        17.3374 
 416   0.0000       0.638241        17.3674 
 417   0.0000       0.641776        17.4636 
 418   0.0000       0.643224        17.5030 
 419   0.0000       0.645188        17.5565 
 420   0.0000       0.646936        17.6040 
 421   0.0000       0.653189        17.7742 
 422   0.0000       0.654347        17.8057 
 423   0.0000       0.657677        17.8963 
 424   0.0000       0.660832        17.9821 
 425   0.0000       0.661777        18.0079 
 426   0.0000       0.662445        18.0260 
 427   0.0000       0.664987        18.0952 
 428   0.0000       0.666488        18.1361 
 429   0.0000       0.668270        18.1846 
 430   0.0000       0.671989        18.2858 
 431   0.0000       0.676980        18.4216 
 432   0.0000       0.678232        18.4556 
 433   0.0000       0.681879        18.5549 
 434   0.0000       0.684148        18.6166 
 435   0.0000       0.684999        18.6398 
 436   0.0000       0.688883        18.7455 
 437   0.0000       0.692031        18.8311 
 438   0.0000       0.693973        18.8840 
 439   0.0000       0.695307        18.9203 
 440   0.0000       0.701269        19.0825 
 441   0.0000       0.704414        19.1681 
 442   0.0000       0.704664        19.1749 
 443   0.0000       0.707688        19.2572 
 444   0.0000       0.709916        19.3178 
 445   0.0000       0.712687        19.3932 
 446   0.0000       0.715155        19.4604 
 447   0.0000       0.719480        19.5780 
 448   0.0000       0.720977        19.6188 
 449   0.0000       0.722142        19.6505 
 450   0.0000       0.725201        19.7337 
 451   0.0000       0.726835        19.7782 
 452   0.0000       0.731407        19.9026 
 453   0.0000       0.733129        19.9495 
 454   0.0000       0.737267        20.0621 
 455   0.0000       0.741220        20.1696 
 456   0.0000       0.743555        20.2332 
 457   0.0000       0.744221        20.2513 
 458   0.0000       0.746880        20.3236 
 459   0.0000       0.749431        20.3930 
 460   0.0000       0.753410        20.5013 
 461   0.0000       0.757179        20.6039 
 462   0.0000       0.757264        20.6062 
 463   0.0000       0.762104        20.7379 
 464   0.0000       0.763310        20.7707 
 465   0.0000       0.767089        20.8736 
 466   0.0000       0.769406        20.9366 
 467   0.0000       0.769994        20.9526 
 468   0.0000       0.773065        21.0362 
 469   0.0000       0.776574        21.1317 
 470   0.0000       0.779123        21.2010 
 471   0.0000       0.780968        21.2512 
 472   0.0000       0.782661        21.2973 
 473   0.0000       0.786999        21.4153 
 474   0.0000       0.789275        21.4773 
 475   0.0000       0.792160        21.5558 
 476   0.0000       0.793978        21.6052 
 477   0.0000       0.795302        21.6413 
 478   0.0000       0.800907        21.7938 
 479   0.0000       0.803855        21.8740 
 480   0.0000       0.805397        21.9160 
 481   0.0000       0.807522        21.9738 
 482   0.0000       0.811175        22.0732 
 483   0.0000       0.813702        22.1420 
 484   0.0000       0.815487        22.1905 
 485   0.0000       0.816259        22.2115 
 486   0.0000       0.819023        22.2868 
 487   0.0000       0.821277        22.3481 
 488   0.0000       0.824333        22.4312 
 489   0.0000       0.826093        22.4791 
 490   0.0000       0.830797        22.6071 
 491   0.0000       0.832621        22.6568 
 492   0.0000       0.834762        22.7150 
 493   0.0000       0.837401        22.7868 
 494   0.0000       0.839416        22.8417 
 495   0.0000       0.841448        22.8970 
 496   0.0000       0.846022        23.0214 
 497   0.0000       0.847300        23.0562 
 498   0.0000       0.849943        23.1281 
 499   0.0000       0.851488        23.1702 
 500   0.0000       0.853843        23.2342 
 501   0.0000       0.856063        23.2946 
 502   0.0000       0.860188        23.4069 
 503   0.0000       0.860551        23.4168 
 504   0.0000       0.861759        23.4497 
 505   0.0000       0.865168        23.5424 
 506   0.0000       0.865498        23.5514 
 507   0.0000       0.869518        23.6608 
 508   0.0000       0.872127        23.7318 
 509   0.0000       0.873886        23.7796 
 510   0.0000       0.875961        23.8361 
 511   0.0000       0.878913        23.9164 
 512   0.0000       0.880598        23.9623 
 513   0.0000       0.881962        23.9994 
 514   0.0000       0.884772        24.0759 
 515   0.0000       0.885973        24.1086 
 516   0.0000       0.890334        24.2272 
 517   0.0000       0.891843        24.2683 
 518   0.0000       0.894686        24.3456 
 519   0.0000       0.895338        24.3634 
 520   0.0000       0.898411        24.4470 
 521   0.0000       0.899372        24.4732 
 522   0.0000       0.901683        24.5360 
 523   0.0000       0.903242        24.5785 
 524   0.0000       0.903607        24.5884 
 525   0.0000       0.907083        24.6830 
 526   0.0000       0.909075        24.7372 
 527   0.0000       0.912451        24.8291 
 528   0.0000       0.915077        24.9005 
 529   0.0000       0.917396        24.9636 
 530   0.0000       0.919867        25.0309 
 531   0.0000       0.921605        25.0782 
 532   0.0000       0.924190        25.1485 
 533   0.0000       0.926232        25.2041 
 534   0.0000       0.929292        25.2873 
 535   0.0000       0.930617        25.3234 
 536   0.0000       0.933138        25.3920 
 537   0.0000       0.934308        25.4238 
 538   0.0000       0.935678        25.4611 
 539   0.0000       0.939333        25.5605 
 540   0.0000       0.941645        25.6235 
 541   0.0000       0.942082        25.6353 
 542   0.0000       0.943399        25.6712 
 543   0.0000       0.945815        25.7369 
 544   0.0000       0.948300        25.8046 
 545   0.0000       0.951115        25.8812 
 546   0.0000       0.951730        25.8979 
 547   0.0000       0.955460        25.9994 
 548   0.0000       0.958913        26.0934 
 549   0.0000       0.961237        26.1566 
 550   0.0000       0.963606        26.2210 
 551   0.0000       0.965628        26.2761 
 552   0.0000       0.966365        26.2961 
 553   0.0000       0.968568        26.3561 
 554   0.0000       0.969084        26.3701 
 555   0.0000       0.973936        26.5021 
 556   0.0000       0.974998        26.5310 
 557   0.0000       0.979895        26.6643 
 558   0.0000       0.980981        26.6938 
 559   0.0000       0.981827        26.7169 
 560   0.0000       0.985046        26.8045 
 561   0.0000       0.987036        26.8586 
 562   0.0000       0.991250        26.9733 
 563   0.0000       0.992633        27.0109 
 564   0.0000       0.993447        27.0331 
 565   0.0000       0.994949        27.0739 
 566   0.0000       0.997533        27.1442 
 567   0.0000       1.000272        27.2188 
 568   0.0000       1.001987        27.2655 
 569   0.0000       1.004988        27.3471 
 570   0.0000       1.009346        27.4657 
 571   0.0000       1.011078        27.5128 
 572   0.0000       1.012459        27.5504 
 573   0.0000       1.014756        27.6129 
 574   0.0000       1.016601        27.6631 
 575   0.0000       1.020869        27.7793 
 576   0.0000       1.023745        27.8575 
 577   0.0000       1.024834        27.8871 
 578   0.0000       1.027475        27.9590 
 579   0.0000       1.029777        28.0217 
 580   0.0000       1.034176        28.1414 
 581   0.0000       1.035219        28.1698 
 582   0.0000       1.035870        28.1875 
 583   0.0000       1.040598        28.3161 
 584   0.0000       1.041549        28.3420 
 585   0.0000       1.044247        28.4154 
 586   0.0000       1.046243        28.4697 
 587   0.0000       1.048593        28.5337 
 588   0.0000       1.049579        28.5605 
 589   0.0000       1.051405        28.6102 
 590   0.0000       1.054928        28.7060 
 591   0.0000       1.056703        28.7544 
 592   0.0000       1.060972        28.8705 
 593   0.0000       1.063728        28.9455 
 594   0.0000       1.066280        29.0149 
 595   0.0000       1.067827        29.0570 
 596   0.0000       1.068639        29.0792 
 597   0.0000       1.071423        29.1549 
 598   0.0000       1.073341        29.2071 
 599   0.0000       1.078661        29.3518 
 600   0.0000       1.082413        29.4539 
 601   0.0000       1.084018        29.4976 
 602   0.0000       1.086388        29.5621 
 603   0.0000       1.086665        29.5696 
 604   0.0000       1.089150        29.6373 
 605   0.0000       1.092584        29.7307 
 606   0.0000       1.093917        29.7670 
 607   0.0000       1.096787        29.8451 
 608   0.0000       1.097903        29.8755 
 609   0.0000       1.102634        30.0042 
 610   0.0000       1.104074        30.0434 
 611   0.0000       1.104863        30.0649 
 612   0.0000       1.109470        30.1902 
 613   0.0000       1.112674        30.2774 
 614   0.0000       1.114547        30.3284 
 615   0.0000       1.115710        30.3600 
 616   0.0000       1.118996        30.4494 
 617   0.0000       1.121827        30.5265 
 618   0.0000       1.122653        30.5489 
 619   0.0000       1.123863        30.5819 
 620   0.0000       1.127772        30.6882 
 621   0.0000       1.130757        30.7695 
 622   0.0000       1.131628        30.7932 
 623   0.0000       1.132952        30.8292 
 624   0.0000       1.139429        31.0054 
 625   0.0000       1.140394        31.0317 
 626   0.0000       1.144261        31.1369 
 627   0.0000       1.147386        31.2220 
 628   0.0000       1.148281        31.2463 
 629   0.0000       1.150088        31.2955 
 630   0.0000       1.151677        31.3387 
 631   0.0000       1.152462        31.3601 
 632   0.0000       1.156498        31.4699 
 633   0.0000       1.158479        31.5238 
 634   0.0000       1.160143        31.5691 
 635   0.0000       1.164157        31.6783 
 636   0.0000       1.166527        31.7428 
 637   0.0000       1.168739        31.8030 
 638   0.0000       1.171111        31.8676 
 639   0.0000       1.174490        31.9595 
 640   0.0000       1.176133        32.0042 
 641   0.0000       1.178536        32.0696 
 642   0.0000       1.180410        32.1206 
 643   0.0000       1.184094        32.2208 
 644   0.0000       1.184255        32.2252 
 645   0.0000       1.186971        32.2991 
 646   0.0000       1.189667        32.3725 
 647   0.0000       1.191244        32.4154 
 648   0.0000       1.193216        32.4691 
 649   0.0000       1.197916        32.5970 
 650   0.0000       1.201485        32.6941 
 651   0.0000       1.204672        32.7808 
 652   0.0000       1.206950        32.8428 
 653   0.0000       1.209320        32.9073 
 654   0.0000       1.210280        32.9334 
 655   0.0000       1.211555        32.9681 
 656   0.0000       1.215550        33.0768 
 657   0.0000       1.216548        33.1040 
 658   0.0000       1.221697        33.2441 
 659   0.0000       1.223836        33.3023 
 660   0.0000       1.227188        33.3935 
 661   0.0000       1.230870        33.4937 
 662   0.0000       1.231821        33.5196 
 663   0.0000       1.234953        33.6048 
 664   0.0000       1.237334        33.6696 
 665   0.0000       1.239830        33.7375 
 666   0.0000       1.242065        33.7983 
 667   0.0000       1.245796        33.8998 
 668   0.0000       1.248653        33.9776 
 669   0.0000       1.252525        34.0829 
 670   0.0000       1.253320        34.1046 
 671   0.0000       1.254081        34.1253 
 672   0.0000       1.256215        34.1833 
 673   0.0000       1.257079        34.2069 
 674   0.0000       1.262042        34.3419 
 675   0.0000       1.263970        34.3944 
 676   0.0000       1.266447        34.4618 
 677   0.0000       1.270613        34.5751 
 678   0.0000       1.272071        34.6148 
 679   0.0000       1.274388        34.6779 
 680   0.0000       1.279031        34.8042 
 681   0.0000       1.280458        34.8430 
 682   0.0000       1.283742        34.9324 
 683   0.0000       1.284595        34.9556 
 684   0.0000       1.287821        35.0434 
 685   0.0000       1.291100        35.1326 
 686   0.0000       1.293479        35.1974 
 687   0.0000       1.294422        35.2230 
 688   0.0000       1.299289        35.3555 
 689   0.0000       1.301078        35.4041 
 690   0.0000       1.302642        35.4467 
 691   0.0000       1.306530        35.5525 
 692   0.0000       1.307188        35.5704 
 693   0.0000       1.310187        35.6520 
 694   0.0000       1.311976        35.7007 
 695   0.0000       1.316320        35.8189 
 696   0.0000       1.319357        35.9015 
 697   0.0000       1.322923        35.9986 
 698   0.0000       1.326088        36.0847 
 699   0.0000       1.329817        36.1861 
 700   0.0000       1.331971        36.2448 
 701   0.0000       1.333588        36.2888 
 702   0.0000       1.334520        36.3141 
 703   0.0000       1.339114        36.4392 
 704   0.0000       1.339963        36.4623 
 705   0.0000       1.342936        36.5431 
 706   0.0000       1.346755        36.6471 
 707   0.0000       1.347900        36.6782 
 708   0.0000       1.350039        36.7364 
 709   0.0000       1.353020        36.8175 
 710   0.0000       1.355183        36.8764 
 711   0.0000       1.355664        36.8895 
 712   0.0000       1.360476        37.0204 
 713   0.0000       1.363538        37.1037 
 714   0.0000       1.368494        37.2386 
 715   0.0000       1.371582        37.3226 
 716   0.0000       1.372678        37.3525 
 717   0.0000       1.373024        37.3619 
 718   0.0000       1.378200        37.5027 
 719   0.0000       1.378950        37.5231 
 720   0.0000       1.383712        37.6527 
 721   0.0000       1.389583        37.8125 
 722   0.0000       1.389968        37.8230 
 723   0.0000       1.390894        37.8481 
 724   0.0000       1.393806        37.9274 
 725   0.0000       1.398674        38.0599 
 726   0.0000       1.401025        38.1238 
 727   0.0000       1.402491        38.1637 
 728   0.0000       1.404881        38.2287 
 729   0.0000       1.408528        38.3280 
 730   0.0000       1.413420        38.4611 
 731   0.0000       1.415888        38.5283 
 732   0.0000       1.417839        38.5814 
 733   0.0000       1.421670        38.6856 
 734   0.0000       1.425056        38.7777 
 735   0.0000       1.427684        38.8493 
 736   0.0000       1.431051        38.9409 
 737   0.0000       1.431630        38.9566 
 738   0.0000       1.433980        39.0206 
 739   0.0000       1.437084        39.1050 
 740   0.0000       1.440853        39.2076 
 741   0.0000       1.443309        39.2744 
 742   0.0000       1.447217        39.3808 
 743   0.0000       1.447975        39.4014 
 744   0.0000       1.454224        39.5714 
 745   0.0000       1.455139        39.5963 
 746   0.0000       1.458014        39.6746 
 747   0.0000       1.459775        39.7225 
 748   0.0000       1.462912        39.8079 
 749   0.0000       1.465129        39.8682 
 750   0.0000       1.468523        39.9605 
 751   0.0000       1.469159        39.9778 
 752   0.0000       1.471850        40.0511 
 753   0.0000       1.477370        40.2013 
 754   0.0000       1.479732        40.2656 
 755   0.0000       1.481817        40.3223 
 756   0.0000       1.483882        40.3785 
 757   0.0000       1.487812        40.4854 
 758   0.0000       1.489187        40.5228 
 759   0.0000       1.491382        40.5826 
 760   0.0000       1.499840        40.8127 
 761   0.0000       1.503420        40.9101 
 762   0.0000       1.504579        40.9417 
 763   0.0000       1.506618        40.9972 
 764   0.0000       1.507031        41.0084 
 765   0.0000       1.508734        41.0547 
 766   0.0000       1.510911        41.1140 
 767   0.0000       1.514550        41.2130 
 768   0.0000       1.519891        41.3583 
 769   0.0000       1.523192        41.4482 
 770   0.0000       1.524152        41.4743 
 771   0.0000       1.526173        41.5293 
 772   0.0000       1.528323        41.5878 
 773   0.0000       1.531552        41.6756 
 774   0.0000       1.533429        41.7267 
 775   0.0000       1.538829        41.8737 
 776   0.0000       1.543964        42.0134 
 777   0.0000       1.548213        42.1290 
 778   0.0000       1.549960        42.1766 
 779   0.0000       1.551360        42.2147 
 780   0.0000       1.552337        42.2412 
 781   0.0000       1.557292        42.3761 
 782   0.0000       1.559243        42.4292 
 783   0.0000       1.560724        42.4695 
 784   0.0000       1.564601        42.5750 
 785   0.0000       1.568980        42.6941 
 786   0.0000       1.572592        42.7924 
 787   0.0000       1.573716        42.8230 
 788   0.0000       1.575177        42.8627 
 789   0.0000       1.577697        42.9313 
 790   0.0000       1.578685        42.9582 
 791   0.0000       1.584752        43.1233 
 792   0.0000       1.585546        43.1449 
 793   0.0000       1.587350        43.1940 
 794   0.0000       1.590693        43.2850 
 795   0.0000       1.593920        43.3728 
 796   0.0000       1.597497        43.4701 
 797   0.0000       1.602667        43.6108 
 798   0.0000       1.605254        43.6812 
 799   0.0000       1.609735        43.8031 
 800   0.0000       1.610456        43.8227 
 801   0.0000       1.614782        43.9404 
 802   0.0000       1.617060        44.0024 
 803   0.0000       1.620055        44.0839 
 804   0.0000       1.620952        44.1083 
 805   0.0000       1.623027        44.1648 
 806   0.0000       1.627985        44.2997 
 807   0.0000       1.629746        44.3477 
 808   0.0000       1.631486        44.3950 
 809   0.0000       1.633676        44.4546 
 810   0.0000       1.636689        44.5366 
 811   0.0000       1.639143        44.6033 
 812   0.0000       1.643048        44.7096 
 813   0.0000       1.647830        44.8397 
 814   0.0000       1.649832        44.8942 
 815   0.0000       1.653239        44.9869 
 816   0.0000       1.653616        44.9972 
 817   0.0000       1.656310        45.0705 
 818   0.0000       1.658164        45.1209 
 819   0.0000       1.662884        45.2494 
 820   0.0000       1.667064        45.3631 
 821   0.0000       1.669870        45.4395 
 822   0.0000       1.672921        45.5225 
 823   0.0000       1.674367        45.5619 
 824   0.0000       1.677438        45.6454 
 825   0.0000       1.683376        45.8070 
 826   0.0000       1.686817        45.9006 
 827   0.0000       1.688554        45.9479 
 828   0.0000       1.694346        46.1055 
 829   0.0000       1.695541        46.1380 
 830   0.0000       1.696980        46.1772 
 831   0.0000       1.699184        46.2371 
 832   0.0000       1.705079        46.3976 
 833   0.0000       1.707643        46.4673 
 834   0.0000       1.710334        46.5406 
 835   0.0000       1.715156        46.6718 
 836   0.0000       1.716482        46.7079 
 837   0.0000       1.720249        46.8104 
 838   0.0000       1.723770        46.9062 
 839   0.0000       1.728753        47.0418 
 840   0.0000       1.730093        47.0782 
 841   0.0000       1.731749        47.1233 
 842   0.0000       1.736290        47.2469 
 843   0.0000       1.736636        47.2563 
 844   0.0000       1.740697        47.3668 
 845   0.0000       1.745170        47.4885 
 846   0.0000       1.749359        47.6025 
 847   0.0000       1.750008        47.6202 
 848   0.0000       1.755384        47.7664 
 849   0.0000       1.759000        47.8648 
 850   0.0000       1.760210        47.8977 
 851   0.0000       1.763614        47.9904 
 852   0.0000       1.764774        48.0220 
 853   0.0000       1.769173        48.1416 
 854   0.0000       1.773840        48.2686 
 855   0.0000       1.775871        48.3239 
 856   0.0000       1.778879        48.4058 
 857   0.0000       1.781403        48.4744 
 858   0.0000       1.782842        48.5136 
 859   0.0000       1.788315        48.6625 
 860   0.0000       1.789933        48.7066 
 861   0.0000       1.790653        48.7262 
 862   0.0000       1.797247        48.9056 
 863   0.0000       1.803972        49.0886 
 864   0.0000       1.805375        49.1268 
 865   0.0000       1.807061        49.1726 
 866   0.0000       1.808840        49.2210 
 867   0.0000       1.810966        49.2789 
 868   0.0000       1.819380        49.5079 
 869   0.0000       1.820217        49.5306 
 870   0.0000       1.822321        49.5879 
 871   0.0000       1.827189        49.7203 
 872   0.0000       1.833452        49.8908 
 873   0.0000       1.835206        49.9385 
 874   0.0000       1.840366        50.0789 
 875   0.0000       1.842554        50.1385 
 876   0.0000       1.843840        50.1734 
 877   0.0000       1.846218        50.2382 
 878   0.0000       1.849933        50.3392 
 879   0.0000       1.851419        50.3797 
 880   0.0000       1.854991        50.4769 
 881   0.0000       1.860798        50.6349 
 882   0.0000       1.863909        50.7195 
 883   0.0000       1.868946        50.8566 
 884   0.0000       1.872398        50.9505 
 885   0.0000       1.876608        51.0651 
 886   0.0000       1.880655        51.1752 
 887   0.0000       1.881437        51.1965 
 888   0.0000       1.885008        51.2937 
 889   0.0000       1.889176        51.4071 
 890   0.0000       1.891165        51.4612 
 891   0.0000       1.894295        51.5464 
 892   0.0000       1.896420        51.6042 
 893   0.0000       1.906094        51.8675 
 894   0.0000       1.907749        51.9125 
 895   0.0000       1.910676        51.9921 
 896   0.0000       1.912088        52.0306 
 897   0.0000       1.913366        52.0653 
 898   0.0000       1.917380        52.1746 
 899   0.0000       1.917776        52.1853 
 900   0.0000       1.929061        52.4924 
 901   0.0000       1.930124        52.5214 
 902   0.0000       1.932285        52.5801 
 903   0.0000       1.935573        52.6696 
 904   0.0000       1.939742        52.7831 
 905   0.0000       1.944662        52.9169 
 906   0.0000       1.947075        52.9826 
 907   0.0000       1.948331        53.0168 
 908   0.0000       1.953122        53.1471 
 909   0.0000       1.957133        53.2563 
 910   0.0000       1.962584        53.4046 
 911   0.0000       1.964169        53.4477 
 912   0.0000       1.966729        53.5174 
 913   0.0000       1.968309        53.5604 
 914   0.0000       1.972267        53.6681 
 915   0.0000       1.974992        53.7423 
 916   0.0000       1.977392        53.8076 
 917   0.0000       1.978379        53.8344 
 918   0.0000       1.983203        53.9657 
 919   0.0000       1.986670        54.0600 
 920   0.0000       1.989660        54.1414 
 921   0.0000       1.992443        54.2171 
 922   0.0000       1.996245        54.3206 
 923   0.0000       1.997396        54.3519 
 924   0.0000       2.000973        54.4492 
 925   0.0000       2.003119        54.5076 
 926   0.0000       2.006173        54.5907 
 927   0.0000       2.009050        54.6690 
 928   0.0000       2.010354        54.7045 
 929   0.0000       2.012461        54.7619 
 930   0.0000       2.013779        54.7977 
 931   0.0000       2.017706        54.9046 
 932   0.0000       2.021175        54.9990 
 933   0.0000       2.024843        55.0988 
 934   0.0000       2.026934        55.1557 
 935   0.0000       2.028245        55.1914 
 936   0.0000       2.031559        55.2815 
 937   0.0000       2.033386        55.3312 
 938   0.0000       2.036539        55.4170 
 939   0.0000       2.037888        55.4538 
 940   0.0000       2.041682        55.5570 
 941   0.0000       2.045747        55.6676 
 942   0.0000       2.050688        55.8021 
 943   0.0000       2.052399        55.8486 
 944   0.0000       2.056184        55.9516 
 945   0.0000       2.058387        56.0116 
 946   0.0000       2.063952        56.1630 
 947   0.0000       2.065982        56.2182 
 948   0.0000       2.068731        56.2930 
 949   0.0000       2.072472        56.3948 
 950   0.0000       2.074511        56.4503 
 951   0.0000       2.076130        56.4944 
 952   0.0000       2.077261        56.5251 
 953   0.0000       2.079881        56.5964 
 954   0.0000       2.085385        56.7462 
 955   0.0000       2.087069        56.7920 
 956   0.0000       2.087960        56.8163 
 957   0.0000       2.089921        56.8696 
 958   0.0000       2.092130        56.9297 
 959   0.0000       2.094010        56.9809 
 960   0.0000       2.098729        57.1093 
 961   0.0000       2.099425        57.1283 
 962   0.0000       2.102499        57.2119 
 963   0.0000       2.104359        57.2625 
 964   0.0000       2.105403        57.2909 
 965   0.0000       2.108003        57.3617 
[...]
 3209   0.0000      11.371931       309.4460 
 3210   0.0000      11.391031       309.9657 
 3211   0.0000      11.433802       311.1296 
 3212   0.0000      11.457682       311.7794 
 3213   0.0000      11.467057       312.0345 
 3214   0.0000      11.474085       312.2257 
 3215   0.0000      11.498340       312.8857 
 3216   0.0000      11.501400       312.9690 
 3217   0.0000      11.532397       313.8125 
 3218   0.0000      11.533885       313.8530 
 3219   0.0000      11.566665       314.7450 
 3220   0.0000      11.599136       315.6285 
 3221   0.0000      11.616001       316.0875 
 3222   0.0000      11.623206       316.2835 
 3223   0.0000      11.627758       316.4074 
 3224   0.0000      11.657054       317.2046 
 3225   0.0000      11.662611       317.3558 
 3226   0.0000      11.682139       317.8872 
 3227   0.0000      11.722543       318.9866 
 3228   0.0000      11.733308       319.2795 
 3229   0.0000      11.750982       319.7605 
 3230   0.0000      11.767907       320.2210 
 3231   0.0000      11.787491       320.7539 
 3232   0.0000      11.810020       321.3670 
 3233   0.0000      11.816002       321.5298 
 3234   0.0000      11.823547       321.7351 
 3235   0.0000      11.826144       321.8057 
 3236   0.0000      11.839102       322.1583 
 3237   0.0000      11.863126       322.8121 
 3238   0.0000      11.868834       322.9674 
 3239   0.0000      11.870995       323.0262 
 3240   0.0000      11.895659       323.6973 
 3241   0.0000      11.902741       323.8900 
 3242   0.0000      11.910506       324.1013 
 3243   0.0000      11.935449       324.7801 
 3244   0.0000      11.942700       324.9774 
 3245   0.0000      11.948471       325.1344 
 3246   0.0000      11.958403       325.4047 
 3247   0.0000      11.992786       326.3403 
 3248   0.0000      12.018099       327.0291 
 3249   0.0000      12.027852       327.2945 
 3250   0.0000      12.063830       328.2735 
 3251   0.0000      12.080290       328.7214 
 3252   0.0000      12.091971       329.0393 
 3253   0.0000      12.094379       329.1048 
 3254   0.0000      12.117534       329.7349 
 3255   0.0000      12.138361       330.3016 
 3256   0.0000      12.148906       330.5885 
 3257   0.0000      12.164607       331.0158 
 3258   0.0000      12.168845       331.1311 
 3259   0.0000      12.171657       331.2076 
 3260   0.0000      12.186559       331.6131 
 3261   0.0000      12.188968       331.6787 
 3262   0.0000      12.197814       331.9194 
 3263   0.0000      12.205954       332.1409 
 3264   0.0000      12.209794       332.2454 
 3265   0.0000      12.220316       332.5317 
 3266   0.0000      12.233799       332.8986 
 3267   0.0000      12.240494       333.0808 
 3268   0.0000      12.250124       333.3428 
 3269   0.0000      12.265216       333.7535 
 3270   0.0000      12.273396       333.9761 
 3271   0.0000      12.278246       334.1081 
 3272   0.0000      12.289944       334.4264 
 3273   0.0000      12.297714       334.6378 
 3274   0.0000      12.334774       335.6463 
 3275   0.0000      12.335897       335.6768 
 3276   0.0000      12.364401       336.4525 
 3277   0.0000      12.378322       336.8313 
 3278   0.0000      12.386179       337.0451 
 3279   0.0000      12.390725       337.1688 
 3280   0.0000      12.397805       337.3614 
 3281   0.0000      12.432521       338.3061 
 3282   0.0000      12.437431       338.4397 
 3283   0.0000      12.454532       338.9050 
 3284   0.0000      12.464385       339.1732 
 3285   0.0000      12.468310       339.2800 
 3286   0.0000      12.492906       339.9493 
 3287   0.0000      12.505851       340.3015 
 3288   0.0000      12.520823       340.7089 
 3289   0.0000      12.530467       340.9713 
 3290   0.0000      12.538924       341.2015 
 3291   0.0000      12.552143       341.5612 
 3292   0.0000      12.573003       342.1288 
 3293   0.0000      12.580113       342.3223 
 3294   0.0000      12.592278       342.6533 
 3295   0.0000      12.612789       343.2114 
 3296   0.0000      12.615698       343.2906 
 3297   0.0000      12.627975       343.6247 
 3298   0.0000      12.633211       343.7672 
 3299   0.0000      12.670357       344.7779 
 3300   0.0000      12.676458       344.9440 
 3301   0.0000      12.704595       345.7096 
 3302   0.0000      12.741672       346.7185 
 3303   0.0000      12.768081       347.4372 
 3304   0.0000      12.781013       347.7890 
 3305   0.0000      12.783692       347.8619 
 3306   0.0000      12.802037       348.3611 
 3307   0.0000      12.807105       348.4990 
 3308   0.0000      12.812213       348.6380 
 3309   0.0000      12.816322       348.7498 
 3310   0.0000      12.839705       349.3861 
 3311   0.0000      12.851161       349.6979 
 3312   0.0000      12.863475       350.0330 
 3313   0.0000      12.881645       350.5274 
 3314   0.0000      12.897270       350.9526 
 3315   0.0000      12.939737       352.1082 
 3316   0.0000      12.959855       352.6556 
 3317   0.0000      12.964784       352.7897 
 3318   0.0000      12.991602       353.5195 
 3319   0.0000      13.022116       354.3498 
 3320   0.0000      13.032027       354.6195 
 3321   0.0000      13.065664       355.5348 
 3322   0.0000      13.101191       356.5015 
 3323   0.0000      13.117288       356.9395 
 3324   0.0000      13.135157       357.4258 
 3325   0.0000      13.147640       357.7655 
 3326   0.0000      13.156814       358.0151 
 3327   0.0000      13.176702       358.5563 
 3328   0.0000      13.185023       358.7827 
 3329   0.0000      13.188563       358.8790 
 3330   0.0000      13.205321       359.3351 
 3331   0.0000      13.223000       359.8161 
 3332   0.0000      13.234071       360.1174 
 3333   0.0000      13.248225       360.5025 
 3334   0.0000      13.256873       360.7379 
 3335   0.0000      13.260459       360.8354 
 3336   0.0000      13.321011       362.4831 
 3337   0.0000      13.355900       363.4325 
 3338   0.0000      13.368345       363.7711 
 3339   0.0000      13.386516       364.2656 
 3340   0.0000      13.395502       364.5102 
 3341   0.0000      13.412086       364.9614 
 3342   0.0000      13.435277       365.5925 
 3343   0.0000      13.446552       365.8993 
 3344   0.0000      13.520623       367.9149 
 3345   0.0000      13.551359       368.7512 
 3346   0.0000      13.588480       369.7613 
 3347   0.0000      13.656410       371.6098 
 3348   0.0000      13.731068       373.6414 
 3349   0.0000      13.765348       374.5742 
 3350   0.0000      13.905752       378.3947 
 3351   0.0000      13.910534       378.5249 
 3352   0.0000      13.939554       379.3146 
 3353   0.0000      14.146903       384.9568 
 3354   0.0000      14.190577       386.1452 
 3355   0.0000      14.425840       392.5471 
 3356   0.0000      14.547322       395.8528 
 3357   0.0000      14.666839       399.1050 
 3358   0.0000      14.673432       399.2844 
 3359   0.0000      14.679743       399.4561 
 3360   0.0000      14.681360       399.5001 
 3361   0.0000      14.701568       400.0500 
 3362   0.0000      14.769071       401.8869 
 3363   0.0000      14.932196       406.3257 
 3364   0.0000      15.019957       408.7138 
 3365   0.0000      15.072396       410.1407 
 3366   0.0000      15.239491       414.6876 
 3367   0.0000      16.694739       454.2870 
 3368   0.0000      16.736120       455.4130 
 3369   0.0000      19.453964       529.3693 
 3370   0.0000      19.583680       532.8990 
 3371   0.0000      19.864324       540.5357 
 3372   0.0000      21.438410       583.3688 
 3373   0.0000      28.510448       775.8087 
 3374   0.0000      28.610000       778.5177 
 3375   0.0000      28.755862       782.4868 
 3376   0.0000      28.784507       783.2662 
 3377   0.0000      28.908908       786.6514 
 3378   0.0000      28.920945       786.9789 
 3379   0.0000      28.982009       788.6406 
 3380   0.0000      28.989327       788.8397 
 3381   0.0000      29.070830       791.0575 
 3382   0.0000      29.201829       794.6222 
 3383   0.0000      29.221901       795.1683 
 3384   0.0000      29.233555       795.4855 
 3385   0.0000      29.250926       795.9582 
 3386   0.0000      29.263131       796.2903 
 3387   0.0000      29.280232       796.7556 
 3388   0.0000      29.300096       797.2961 
 3389   0.0000      29.328850       798.0786 
 3390   0.0000      29.359187       798.9041 
 3391   0.0000      29.381459       799.5101 
 3392   0.0000      29.397958       799.9591 
 3393   0.0000      29.405872       800.1745 
 3394   0.0000      29.422262       800.6204 
 3395   0.0000      29.439574       801.0915 
 3396   0.0000      29.458189       801.5981 
 3397   0.0000      29.493289       802.5532 
 3398   0.0000      29.514361       803.1266 
 3399   0.0000      29.644087       806.6566 
 3400   0.0000      38.077225      1036.1340 
 3401   0.0000      38.140556      1037.8573 
 3402   0.0000      38.342863      1043.3624 
 3403   0.0000      38.438526      1045.9655 
 3404   0.0000      38.453427      1046.3709 
 3405   0.0000      38.631754      1051.2235 
 3406   0.0000      48.632187      1323.3491 
 3407   0.0000      48.705505      1325.3442 
 3408   0.0000      48.771576      1327.1421 
 3409   0.0000      48.816836      1328.3736 
 3410   0.0000      48.869243      1329.7997 
 3411   0.0000      48.874384      1329.9396 
 3412   0.0000      48.910240      1330.9153 
 3413   0.0000      48.993830      1333.1899 
 3414   0.0000      71.758325      1952.6433 
 3415   0.0000     148.076296      4029.3609 
 3416   0.0000     148.201914      4032.7791 
 3417   0.0000     148.304578      4035.5727 
 3418   0.0000     148.320168      4035.9970 
 3419   0.0000     148.430207      4038.9913 
 3420   0.0000     148.492078      4040.6749 
 3421   0.0000     148.543929      4042.0858 
 3422   0.0000     148.565600      4042.6755 
 3423   0.0000     148.664867      4045.3767 
 3424   0.0000     148.759588      4047.9542 
 3425   0.0000     148.774960      4048.3725 
 3426   0.0000     148.788228      4048.7335 
 3427   0.0000     148.808809      4049.2936 
 3428   0.0000     148.840067      4050.1441 
 3429   0.0000     148.859955      4050.6853 
 3430   0.0000     148.869594      4050.9476 
 3431   0.0000     148.872688      4051.0318 
 3432   0.0000     148.918608      4052.2814 
 3433   0.0000     148.953169      4053.2218 
 3434   0.0000     148.958887      4053.3774 
 3435   0.0000     148.969311      4053.6610 
 3436   0.0000     148.995139      4054.3638 
 3437   0.0000     149.008747      4054.7342 
 3438   0.0000     149.054617      4055.9823 
 3439   0.0000     149.071309      4056.4366 
 3440   0.0000     149.099364      4057.2000 
 3441   0.0000     149.181497      4059.4349 
 3442   0.0000     197.944169      5386.3347 
 3443   0.0000     198.019808      5388.3929 
 3444   0.0000     198.257153      5394.8514 
 3445   0.0000     198.314393      5396.4090 
 3446   0.0000     198.338437      5397.0633 
 3447   0.0000     198.514839      5401.8634 
 3448   0.0000     254.302824      6919.9316 
 3449   0.0000     254.397400      6922.5052 
 3450   0.0000     254.462580      6924.2788 
 3451   0.0000     254.516361      6925.7423 
 3452   0.0000     254.563813      6927.0335 
 3453   0.0000     254.581276      6927.5087 
 3454   0.0000     254.610792      6928.3119 
 3455   0.0000     254.717928      6931.2272 
 3456   0.0000     384.237930     10455.6456 
Total SCF time: 0 days 0 hours 31 min 20 sec 


           ************************************************************
           *        Program running with 36 parallel MPI-processes    *
           *              working on a common directory               *
           ************************************************************

------------------------------------------------------------------------------
                                ORCA  MP2 
------------------------------------------------------------------------------

Freezing NCore=92 chemical core electrons

   <<< Use J-auxbasis for calculation of Separable RI-J derivative contributions (Dim=2445) >>> 


-------------
RI-MP2 ENERGY
-------------
Dimension of the basis                    ... 3457
Memory devoted to MP2                     ... 6000 MB   
Data format for buffers                   ... DOUBLE
Compression type for matrix containers    ... UNCOMPRESSED
Scaling for aa/bb pairs                   ...   0.000e+00
Scaling for ab pairs                      ...   1.000e+00
Overall scaling of the MP2 energy         ...   2.690e-01
Calculating two index integrals           ... done (    0.934 sec)
Cholesky decomposition of V**-1           ... done (   10.332 sec)

-----------------
RI-TRANSFORMATION (AUX index driven)
-----------------

Dimension of the orbital-basis         ... 3457
Dimension of the aux-basis             ... 7908
Transformation of internal/external MOs...   46- 158 to  159-3456
Number Format for Storage              ... Double (8 Byte)
Integral mode                          ... Direct

First Phase: integral generation and transformation of MO indices
  Aux angular momentum 0               ... done (    8.694 sec)
  Aux angular momentum 1               ... done (   18.267 sec)
  Aux angular momentum 2               ... done (   25.375 sec)
  Aux angular momentum 3               ... done (   22.729 sec)
  Aux angular momentum 4               ... done (   18.570 sec)
  Aux angular momentum 5               ... done (    7.303 sec)
Closing buffer VIA (21.96 GB; CompressionRatio= 1.00)
  Phase 1 completed in   103.457 sec
Second Phase: sorting and transformation of aux index

IA-Transformation
Memory available                       ... 4549 MB 
Max. # MO pairs treated in a batch     ... 4    
# of internal orbitals                 ... 113
# batches for internal orbitals        ... 1
Closing buffer IAV ( 0.78 GB; CompressionRatio= 1.00)
(ia|v) transformation done in    72.282 sec

  Phase 2 completed in   104.049 sec
RI-Integral transformation completed in   207.533 sec
Opening buffers                              ... done

Starting loop over batches of integrals:

Operator 0  - window                       ... ( 46-158)x(159-3456)
Operator 0  - Memory available             ...  6000 MB
Operator 0  - Memory needed per MO         ... 199.0 MB
Operator 0  - Number of orbitals per batch ... 4
Operator 0  - Number of batches            ... 1

OPERATOR  0   PASS   0:  MOs    46 ...   49 +   50 ...   53 +   54 ...   57 +   58 ...   61
                            +   62 ...   65 +   66 ...   69 +   70 ...   73 +   74 ...   77
                            +   78 ...   81 +   82 ...   85 +   86 ...   89 +   90 ...   93
                            +   94 ...   97 +   98 ...  101 +  102 ...  105 +  106 ...  109
                            +  110 ...  113 +  114 ...  117 +  118 ...  121 +  122 ...  125
                            +  126 ...  129 +  130 ...  133 +  134 ...  137 +  138 ...  141
                            +  142 ...  145 +  146 ...  149 +  150 ...  153 +  154 ...  157
                            +  158 ...  158
  Reading integrals       ... ok
  Internal MO  48
Time spent in pair loops =    65.996 sec
Deleting buffer (Ka|jb)[aa] ...done

-----------------------------------------------
 RI-MP2 CORRELATION ENERGY:     -2.022410801 Eh
-----------------------------------------------


-------
TIMINGS
-------

Total time                : 2637.323 sec
Integral trafo            :  207.579 sec (  7.9%)
I/O of integrals          :    1.097 sec (  0.0%)
K(i,j) Operators          :   61.599 sec (  2.3%)
T(i,j) pair energies      :    2.420 sec (  0.1%)
V-calculation             :    0.934 sec (  0.0%)
V**(-1/2)                 :   10.332 sec (  0.4%)
Gamma(ia|P)               :    0.000 sec (  0.0%)
Gamma-Trafo               :    0.000 sec (  0.0%)
D(virtual)                :    0.000 sec (  0.0%)
D(internal)               :    0.000 sec (  0.0%)
W(virtual)                :    0.000 sec (  0.0%)
W(internal)               :    0.000 sec (  0.0%)
L(virtual)                :    0.000 sec (  0.0%)
L(internal)               :    0.000 sec (  0.0%)
G(D)                      :    0.000 sec (  0.0%)
G(Z)                      :    0.000 sec (  0.0%)
Z-Vector Solution         :    0.000 sec (  0.0%)
3-Index Derivative        :    0.000 sec (  0.0%)
2-Index Derivative        :    0.000 sec (  0.0%)
Separable Gradient (RIJ)  :    0.000 sec (  0.0%)
Separable Gradient (COSX) :    0.000 sec (  0.0%)


---------------------------------------
MP2 TOTAL ENERGY:    -2321.314458678 Eh
---------------------------------------


-------------------------------------------------------------------------------
                          DFT DISPERSION CORRECTION                            
                                                                               
                              DFTD3 V3.1  Rev 1                                
                          USING Becke-Johnson damping                          
-------------------------------------------------------------------------------
-------------------------   ----------------
Dispersion correction           -0.053260178
-------------------------   ----------------


-------------------------   --------------------
FINAL SINGLE POINT ENERGY     -2321.367718855799
-------------------------   --------------------


                            ***************************************
                            *     ORCA property calculations      *
                            ***************************************


  WARNING: The energy has been calculated at the MP2 level but the densities
           used in the property calculations are still SCF densities
           MP2 response densities have not been calculated 
           use %mp2 Density relaxed end
           or  %mp2 Density unrelaxed end

                                    ---------------------
                                    Active property flags
                                    ---------------------
   (+) Dipole Moment


------------------------------------------------------------------------------
                       ORCA ELECTRIC PROPERTIES CALCULATION
------------------------------------------------------------------------------

Dipole Moment Calculation                       ... on
Quadrupole Moment Calculation                   ... off
Polarizability Calculation                      ... off
GBWName                                         ... orcaSP.gbw
Electron density file                           ... orcaSP.scfp
The origin for moment calculation is the CENTER OF MASS  = ( 0.127517,  0.034243 -0.039218)

-------------
DIPOLE MOMENT
-------------
                                X             Y             Z
Electronic contribution:     38.97235       9.04075     -14.37745
Nuclear contribution   :    -40.55031     -10.88920      12.47125
                        -----------------------------------------
Total Dipole Moment    :     -1.57795      -1.84845      -1.90619
                        -----------------------------------------
Magnitude (a.u.)       :      3.08873
Magnitude (Debye)      :      7.85093



--------------------
Rotational spectrum 
--------------------
 
Rotational constants in cm-1:     0.003866     0.002369     0.001981 
Rotational constants in MHz :   115.911402    71.030407    59.394871 

 Dipole components along the rotational axes: 
x,y,z [a.u.] :    -1.574679     1.916153    -1.840926 
x,y,z [Debye]:    -4.002517     4.870474    -4.679261 

 

Timings for individual modules:

Sum of individual times         ...     4550.937 sec (=  75.849 min)
GTO integral calculation        ...       31.159 sec (=   0.519 min)   0.7 %
SCF iterations                  ...     1880.527 sec (=  31.342 min)  41.3 %
MP2 module                      ...     2639.251 sec (=  43.988 min)  58.0 %
                             ****ORCA TERMINATED NORMALLY****
TOTAL RUN TIME: 0 days 1 hours 15 minutes 53 seconds 778 msec
