
                                 *****************
                                 * O   R   C   A *
                                 *****************

                                            #,                                       
                                            ###                                      
                                            ####                                     
                                            #####                                    
                                            ######                                   
                                           ########,                                 
                                     ,,################,,,,,                         
                               ,,#################################,,                 
                          ,,##########################################,,             
                       ,#########################################, ''#####,          
                    ,#############################################,,   '####,        
                  ,##################################################,,,,####,       
                ,###########''''           ''''###############################       
              ,#####''   ,,,,##########,,,,          '''####'''          '####       
            ,##' ,,,,###########################,,,                        '##       
           ' ,,###''''                  '''############,,,                           
         ,,##''                                '''############,,,,        ,,,,,,###''
      ,#''                                            '''#######################'''  
     '                                                          ''''####''''         
             ,#######,   #######,   ,#######,      ##                                
            ,#'     '#,  ##    ##  ,#'     '#,    #''#        ,####,   ,####,        
            ##       ##  ##   ,#'  ##            #'  '#       #'       #'  '#        
            ##       ##  #######   ##           ,######,      #####,   #    #        
            '#,     ,#'  ##    ##  '#,     ,#' ,#      #,     #,   #   #,  ,#        
             '#######'   ##     ##  '#######'  #'      '#     '####' # '####'        



                #########################################################
                #                        -***-                          #
                #          Department of theory and spectroscopy        #
                #                                                       #
                #                      Frank Neese                      #
                #                                                       #
                #     Directorship, Architecture, Infrastructure        #
                #                    SHARK, DRIVERS                     #
                #        Core code/Algorithms in most modules           #
                #                                                       #
                #        Max Planck Institute fuer Kohlenforschung      #
                #                Kaiser Wilhelm Platz 1                 #
                #                 D-45470 Muelheim/Ruhr                 #
                #                      Germany                          #
                #                                                       #
                #                  All rights reserved                  #
                #                        -***-                          #
                #########################################################


                         Program Version 6.0.1  -  RELEASE   -


 With contributions from (in alphabetic order):
[Max-Planck-Institut fuer Kohlenforschung]                               
  Daniel Aravena         : Magnetic Suceptibility                        
  Michael Atanasov       : Ab Initio Ligand Field Theory (pilot matlab implementation)
  Alexander A. Auer      : GIAO ZORA, VPT2 properties, NMR spectrum      
  Ute Becker             : All parallelization in ORCA, NUMFREQ, NUMCALC 
  Giovanni Bistoni       : ED, misc. LED, open-shell LED, HFLD           
  Martin Brehm           : Molecular dynamics                            
  Dmytro Bykov           : pre 5.0 version of the SCF Hessian            
  Marcos Casanova-Páez   : Triplet and SCS-CIS(D). UHF-(DLPNO)-IP/EA/STEOM-CCSD. UHF-CVS-IP/STEOM-CCSD   
  Vijay G. Chilkuri      : MRCI spin determinant printing, contributions to CSF-ICE 
  Pauline Colinet        : FMM embedding                                 
  Dipayan Datta          : RHF DLPNO-CCSD density                        
  Achintya Kumar Dutta   : EOM-CC, STEOM-CC                              
  Nicolas Foglia         : Exact transition moments, OPA infrastructure, MCD improvements    
  Dmitry Ganyushin       : Spin-Orbit,Spin-Spin,Magnetic field MRCI      
  Miquel Garcia-Rates    : C-PCM and meta-GGA Hessian, CCSD/C-PCM, Gaussian charge scheme 
  Tiago L. C. Gouveia    : GS-ROHF, GS-ROCIS                             
  Yang Guo               : DLPNO-NEVPT2, F12-NEVPT2, CIM, IAO-localization        
  Andreas Hansen         : Spin unrestricted coupled pair/coupled cluster methods 
  Ingolf Harden          : AUTO-CI MPn and infrastructure                
  Benjamin Helmich-Paris : MC-RPA, TRAH-(SCF,CASSCF), AVAS, COSX integrals, SCF dyn. polar. 
  Lee Huntington         : MR-EOM, pCC                                   
  Robert Izsak           : Overlap fitted RIJCOSX, COSX-SCS-MP3, EOM     
  Riya Kayal             : Wick's Theorem for AUTO-CI, AUTO-CI UHF-CCSDT 
  Emily Kempfer          : AUTO-CI, RHF CISDT and CCSDT                  
  Christian Kollmar      : KDIIS, OOCD, Brueckner-CCSD(T), CCSD density, CASPT2, CASPT2-K, improved NEVPT2 
  Axel Koslowski         : Symmetry handling                             
  Simone Kossmann        : meta-GGA functionals, TD-DFT gradient, OOMP2, (MP2 Hessian; deprecated post 5.0) 
  Lucas Lang             : DCDCAS                                        
  Marvin Lechner         : AUTO-CI (C++ implementation), FIC-MRCC        
  Spencer Leger          : CASSCF response                               
  Dagmar Lenk            : GEPOL surface, SMD, ORCA-2-JSON               
  Dimitrios Liakos       : Extrapolation schemes; Compound Job, initial MDCI parallelization 
  Dimitrios Manganas     : Further ROCIS development; embedding schemes. LFT, Crystal Embedding 
  Dimitrios Pantazis     : SARC Basis sets                               
  Anastasios Papadopoulos: AUTO-CI, single reference methods and gradients 
  Taras Petrenko         : pre 6.0 DFT Hessian and TD-DFT gradient, (ASA, deprecated), ECA, 1-Electron XAS/XES, NRVS 
  Peter Pinski           : DLPNO-MP2, DLPNO-MP2 Gradient                 
  Christoph Reimann      : Effective Core Potentials                     
  Marius Retegan         : Local ZFS, SOC                                
  Christoph Riplinger    : Optimizer, TS searches, QM/MM, DLPNO-CCSD(T), (RO)-DLPNO pert. Triples 
  Michael Roemelt        : Original ROCIS implementation                 
  Masaaki Saitow         : Open-shell DLPNO-CCSD energy and density      
  Barbara Sandhoefer     : DKH picture change effects                    
  Kantharuban Sivalingam : CASSCF convergence/infrastructure, NEVPT2 and variants, FIC-MRCI 
  Bernardo de Souza      : ESD, SOC TD-DFT                               
  Georgi L. Stoychev     : AutoAux, RI-MP2 NMR, DLPNO-MP2 response, X2C  
  Van Anh Tran           : RI-MP2 g-tensors                              
  Willem Van den Heuvel  : Paramagnetic NMR                              
  Zikuan Wang            : NOTCH, Electric field optimization            
  Frank Wennmohs         : Technical directorship and infrastructure     
  Hang Xu                : AUTO-CI-Response properties                   
                                                                         
[FACCTs GmbH]                                                            
  Markus Bursch, Miquel Garcia-Rates, Christoph Riplinger, Bernardo de Souza, Georgi L. Stoychev 
                                                                 
  APM, Basis sets (HGBS, AHGBS, def-TZVP (Ac-Lr), def2-XVPD (La-Lu)), CI-OPT, improved COSX, DLPNO-Multilevel,           
  DOCKER, DRACO, updates on ESD, GOAT, IRC, LR-CPCM, MBIS, meta-GGA TD-DFT gradient, ML-optimized integration grids, 
  MM, NACMEs, nearIR, NEB, NEB-TS, NL-DFT gradient (VV10), 2- and 3-layer-ONIOM, interface openCOSMO-RS, QMMM,   
  Crystal-QMMM, SF, symmetry and pop. for TD-DFT, r2SCAN hybrids, SOLVATOR                                   
                                                                         
[Other institutions]                                                     
  V. Asgeirsson          : NEB                                           
  Christoph Bannwarth    : sTDA-DFT, sTD-DFT, PBEh-3c, B97-3c, D3        
  Sebastian Ehlert       : rSCAN, r2SCAN, r2SCAN-3c, D4, dhf basis sets  
  Marvin Friede          : D4 for Fr, Ra, Ac-Lr                          
  Lars Goerigk           : TD-DFT with DH, B97 family of functionals     
  Stefan Grimme          : VdW corrections, initial TS optimization, DFT functionals, gCP, sTDA/sTD-DF 
  Waldemar Hujo          : DFT-NL                                        
  H. Jonsson             : NEB                                           
  Holger Kruse           : gCP                                           
  Marcel Mueller         : wB97X-3c, vDZP basis set                      
  Hagen Neugebauer       : wr2SCAN                                       
  Tobias Risthaus        : range-separated hybrid DFT                    
  Lukas Wittmann         : regularized MP2, r2SCAN double-hybrids, wr2SCAN        
                                                                         
We gratefully acknowledge several colleagues who have allowed us to      
interface, adapt or use parts of their codes:                            
  Ed Valeev, F. Pavosevic, A. Kumar             : LibInt (2-el integral package), F12 methods 
  Garnet Chan, S. Sharma, J. Yang, R. Olivares  : DMRG                   
  Ulf Ekstrom                                   : XCFun DFT Library      
  Mihaly Kallay                                 : mrcc  (arbitrary order and MRCC methods)
  Frank Weinhold                                : gennbo (NPA and NBO analysis)           
  Simon Mueller                                 : openCOSMO-RS                            
  Christopher J. Cramer and Donald G. Truhlar   : smd solvation model                     
  S Lehtola, MJT Oliveira, MAL Marques          : LibXC Library                           
  Liviu Ungur et al                             : ANISO software                          


 Your calculation uses the libint2 library for the computation of 2-el integrals
 For citations please refer to: http://libint.valeyev.net

 Your ORCA version has been built with support for libXC version: 6.2.2
 For citations please refer to: https://libxc.gitlab.io

 This ORCA versions uses:
   CBLAS   interface :  Fast vector & matrix operations
   LAPACKE interface :  Fast linear algebra routines
   SCALAPACK package :  Parallel linear algebra routines
   Shared memory     :  Shared parallel matrices
   BLAS/LAPACK       :  OpenBLAS 0.3.27  USE64BITINT DYNAMIC_ARCH NO_AFFINITY SkylakeX SINGLE_THREADED
        Core in use  :  SkylakeX
   Copyright (c) 2011-2014, The OpenBLAS Project


NOTE: MaxCore=4000 MB was set to SCF,MP2,MDCI,CIPSI,MRCI and CIS
      => If you want to overwrite this, your respective input block should be placed after the MaxCore statement
Your calculation utilizes the geometrical counterpoise correction gCP
Please cite in your paper:
H.Kruse, S. Grimme J.Chem.Phys., 136, (2012), 154101 
   

Your calculation utilizes the atom-pairwise dispersion correction
with the Becke-Johnson damping scheme (D3BJ)


================================================================================

----- Orbital basis set information -----
Your calculation utilizes the basis: MINIX,
   a combination of small basis sets by S. Grimme (see manual for definitions).

================================================================================
                                        WARNINGS
                       Please study these warnings very carefully!
================================================================================


WARNING: Geometry Optimization
  ===> : Switching off AutoStart
         For restart on a previous wavefunction, please use MOREAD

================================================================================
                                       INPUT FILE
================================================================================
NAME = Orca-6.inp
|  1> ! HF-3c Opt Freq
|  2> # Number of CPU processors
|  3> % pal nprocs 10 end 
|  4> # Memory per core (MB)
|  5> % maxcore 4000  
|  6> %scf
|  7> MaxIter 500  
|  8> end 
|  9> * xyz 0 1
| 10> N       0.000000    0.000000    0.000000
| 11> H       0.000000    0.000000    1.089000
| 12> H       1.026719    0.000000   -0.544500
| 13> H      -0.513360    0.889087   -0.544500
| 14> *
| 15> 
| 16> 
| 17>                          ****END OF INPUT****
================================================================================

                       *****************************
                       * Geometry Optimization Run *
                       *****************************

Geometry optimization settings:
Update method            Update   .... BFGS
Choice of coordinates    CoordSys .... (2022) Redundant Internals
Initial Hessian          InHess   .... Almloef's Model
Max. no of cycles        MaxIter  .... 50

Convergence Tolerances:
Energy Change            TolE     ....  5.0000e-06 Eh
Max. Gradient            TolMAXG  ....  3.0000e-04 Eh/bohr
RMS Gradient             TolRMSG  ....  1.0000e-04 Eh/bohr
Max. Displacement        TolMAXD  ....  4.0000e-03 bohr
RMS Displacement         TolRMSD  ....  2.0000e-03 bohr
Strict Convergence                .... False

------------------------------------------------------------------------------
                        ORCA OPTIMIZATION COORDINATE SETUP
------------------------------------------------------------------------------

The optimization will be done in redundant internal coordinates (2022)
Making redundant internal coordinates   ...  (2022 redundants) done
Evaluating the initial hessian          ...  (Almloef) done
Evaluating the coordinates              ...  done
Calculating the B-matrix                .... done
Calculating the G-matrix                .... done
Diagonalizing the G-matrix              .... done
The first mode is                       ....    1
The number of degrees of freedom        ....    6

    -----------------------------------------------------------------
                    Redundant Internal Coordinates


    -----------------------------------------------------------------
         Definition                    Initial Value    Approx d2E/dq
    -----------------------------------------------------------------
      1. B(H   1,N   0)                  1.0890         0.323710   
      2. B(H   2,N   0)                  1.1622         0.247413   
      3. B(H   3,N   0)                  1.1621         0.247467   
      4. A(H   1,N   0,H   3)          117.9399         0.265799   
      5. A(H   2,N   0,H   3)           99.8309         0.255364   
      6. A(H   1,N   0,H   2)          117.9384         0.265791   
      7. I(H   1,H   3,H   2,N   0)    -43.3120         0.006909   
    -----------------------------------------------------------------

Number of atoms                         .... 4
Number of degrees of freedom            .... 7


         *************************************************************
         *                GEOMETRY OPTIMIZATION CYCLE   1            *
         *************************************************************
---------------------------------
CARTESIAN COORDINATES (ANGSTROEM)
---------------------------------
  N      0.000000    0.000000    0.000000
  H      0.000000    0.000000    1.089000
  H      1.026719    0.000000   -0.544500
  H     -0.513360    0.889087   -0.544500

----------------------------
CARTESIAN COORDINATES (A.U.)
----------------------------
  NO LB      ZA    FRAG     MASS         X           Y           Z
   0 N     7.0000    0    14.007    0.000000    0.000000    0.000000
   1 H     1.0000    0     1.008    0.000000    0.000000    2.057912
   2 H     1.0000    0     1.008    1.940218    0.000000   -1.028956
   3 H     1.0000    0     1.008   -0.970110    1.680131   -1.028956

--------------------------------
INTERNAL COORDINATES (ANGSTROEM)
--------------------------------
 N      0   0   0     0.000000000000     0.00000000     0.00000000
 H      1   0   0     1.089000000000     0.00000000     0.00000000
 H      1   2   0     1.162167008205   117.93835380     0.00000000
 H      1   2   3     1.162107754543   117.93990312   239.99780666

---------------------------
INTERNAL COORDINATES (A.U.)
---------------------------
 N      0   0   0     0.000000000000     0.00000000     0.00000000
 H      1   0   0     2.057911759840     0.00000000     0.00000000
 H      1   2   0     2.196177367387   117.93835380     0.00000000
 H      1   2   3     2.196065394192   117.93990312   239.99780666

---------------------
BASIS SET INFORMATION
---------------------
There are 2 groups of distinct atoms

 Group   1 Type N   : 6s3p contracted to 2s1p pattern {33/3}
 Group   2 Type H   : 3s contracted to 1s pattern {3}

Atom   0N    basis set group =>   1
Atom   1H    basis set group =>   2
Atom   2H    basis set group =>   2
Atom   3H    basis set group =>   2


           ************************************************************
           *        Program running with 10 parallel MPI-processes    *
           *              working on a common directory               *
           ************************************************************
------------------------------------------------------------------------------
                             ORCA STARTUP CALCULATIONS
------------------------------------------------------------------------------
------------------------------------------------------------------------------
                   ___                                                        
                  /   \      - P O W E R E D   B Y -                         
                 /     \                                                     
                 |  |  |   _    _      __       _____    __    __             
                 |  |  |  | |  | |    /  \     |  _  \  |  |  /  |          
                  \  \/   | |  | |   /    \    | | | |  |  | /  /          
                 / \  \   | |__| |  /  /\  \   | |_| |  |  |/  /          
                |  |  |   |  __  | /  /__\  \  |    /   |      \           
                |  |  |   | |  | | |   __   |  |    \   |  |\   \          
                \     /   | |  | | |  |  |  |  | |\  \  |  | \   \       
                 \___/    |_|  |_| |__|  |__|  |_| \__\ |__|  \__/        
                                                                              
                      - O R C A' S   B I G   F R I E N D -                    
                                      &                                       
                       - I N T E G R A L  F E E D E R -                       
                                                                              
 v1 FN, 2020, v2 2021, v3 2022-2024                                           
------------------------------------------------------------------------------


----------------------
SHARK INTEGRAL PACKAGE
----------------------

Number of atoms                             ...      4
Number of basis functions                   ...      8
Number of shells                            ...      6
Maximum angular momentum                    ...      1
Integral batch strategy                     ... SHARK/LIBINT Hybrid
RI-J (if used) integral strategy            ... SPLIT-RIJ (Revised 2003 algorithm where possible)
Printlevel                                  ...      1
Contraction scheme used                     ... SEGMENTED contraction
Prescreening option                         ... SCHWARTZ
   Thresh                                   ... 2.500e-11
   Tcut                                     ... 2.500e-12
   Tpresel                                  ... 2.500e-12 
Coulomb Range Separation                    ... NOT USED
Exchange Range Separation                   ... NOT USED
Multipole approximations                    ... NOT USED
Finite Nucleus Model                        ... NOT USED
CABS basis                                  ... NOT available
Auxiliary Coulomb fitting basis             ... NOT available
Auxiliary J/K fitting basis                 ... NOT available
Auxiliary Correlation fitting basis         ... NOT available
Auxiliary 'external' fitting basis          ... NOT available

Checking pre-screening integrals            ... done (  0.0 sec) Dimension = 6
Check shell pair data                       ... done (  0.0 sec)
Shell pair information
Shell pair cut-off parameter TPreSel        ...   2.5e-12
Total number of shell pairs                 ...        21
Shell pairs after pre-screening             ...        21
Total number of primitive shell pairs       ...       189
Primitive shell pairs kept                  ...       183
          la=0 lb=0:     15 shell pairs
          la=1 lb=0:      5 shell pairs
          la=1 lb=1:      1 shell pairs

Calculating one electron integrals          ... done (  0.0 sec)
Calculating Nuclear repulsion               ... done (  0.0 sec) ENN=     10.622511873141 Eh
Calculating 4-index integrals               ...     -> SHARK/Ints2Disk: Thresh =     2.500000e-11 TCut=    2.500000e-12 
    -> calling libint FockFlag=2 Lmax_loc=1
    ->Total LIBINT loop time =    0.000 sec
    -> L=0 0 0 0:     0.003 sec done=       120 (=100.0%) skipped=         0 
    -> L=1 0 0 0:     0.000 sec done=        75 (=100.0%) skipped=         0 
    -> L=1 0 1 0:     0.000 sec done=        15 (=100.0%) skipped=         0 
    -> L=1 1 0 0:     0.000 sec done=        15 (=100.0%) skipped=         0 
    -> L=1 1 1 0:     0.001 sec done=         5 (=100.0%) skipped=         0 
    -> L=1 1 1 1:     0.004 sec done=         1 (=100.0%) skipped=         0 
    ->Total SHARK integral loop time =    0.008 sec
    -> Total Integral generation matrix time =    0.022 sec
    -> Number of small integrals   =         0
    -> Number of medium integrals  =         0
    -> Number of large integrals   =       466
    -> Number of MB stored         =         0 MB

done (  0.0 sec)

Diagonalization of the overlap matrix:
Smallest eigenvalue                        ... 3.439e-01
Time for diagonalization                   ...    0.001 sec
Threshold for overlap eigenvalues          ... 1.000e-07
Number of eigenvalues below threshold      ... 0
Time for construction of square roots      ...    0.002 sec
Total time needed                          ...    0.006 sec

-------------------
DFT GRID GENERATION
-------------------

General Integration Accuracy     IntAcc      ... 4.388
Radial Grid Type                 RadialGrid  ... OptM3 with GC (2021)
Angular Grid (max. ang.)         AngularGrid ... 4 (Lebedev-302)
Angular grid pruning method      GridPruning ... 4 (adaptive)
Weight generation scheme         WeightScheme... mBecke (2022)
Basis function cutoff            BFCut       ... 1.0000e-11
Integration weight cutoff        WCut        ... 1.0000e-14
Partially contracted basis set               ... off
Rotationally invariant grid construction     ... off
Angular grids for H and He will be reduced by one unit

Total number of grid points                  ...    16038
Total number of batches                      ...      252
Average number of points per batch           ...       63
Average number of grid points per atom       ...     4010
Initializing property integral containers    ... done (  0.0 sec)

SHARK setup successfully completed in   0.2 seconds

Maximum memory used throughout the entire STARTUP-calculation: 29.3 MB


           ************************************************************
           *        Program running with 10 parallel MPI-processes    *
           *              working on a common directory               *
           ************************************************************
-------------------------------------------------------------------------------
                                 ORCA GUESS
                   Start orbitals & Density for SCF / CASSCF
-------------------------------------------------------------------------------

------------
SCF SETTINGS
------------
Hamiltonian:
 Ab initio Hamiltonian  Method          .... Hartree-Fock(GTOs)


General Settings:
 Integral files         IntName         .... Orca-6
 Hartree-Fock type      HFTyp           .... RHF
 Total Charge           Charge          ....    0
 Multiplicity           Mult            ....    1
 Number of Electrons    NEL             ....   10
 Basis Dimension        Dim             ....    8
 Nuclear Repulsion      ENuc            ....     10.6225118731 Eh

Convergence Acceleration:
 AO-DIIS                CNVDIIS         .... on
   Start iteration      DIISMaxIt       ....    12
   Startup error        DIISStart       ....  0.200000
   # of expansion vecs  DIISMaxEq       ....     5
   Bias factor          DIISBfac        ....   1.050
   Max. coefficient     DIISMaxC        ....  10.000
 MO-DIIS                CNVKDIIS        .... off
 Trust-Rad. Augm. Hess. CNVTRAH         .... auto
   Auto Start mean grad. ratio tolernc. ....  1.125000
   Auto Start start iteration           ....    50
   Auto Start num. interpolation iter.  ....    10
   Max. Number of Micro iterations      ....    24
   Max. Number of Macro iterations      .... Maxiter - #DIIS iter
   Number of Davidson start vectors     ....     2
   Converg. threshold    (grad. norm)   ....   1.000e-05
   Grad. Scal. Fac. for Micro threshold ....   0.100
   Minimum threshold for Micro iter.    ....   1.000e-02
   NR start threshold (gradient norm)   ....   1.000e-04
   Initial trust radius                 ....   0.400
   Minimum AH scaling param. (alpha)    ....   1.000
   Maximum AH scaling param. (alpha)    .... 1000.000
   Quad. conv. algorithm                .... NR
   White noise on init. David. guess    .... on
   Maximum white noise                  ....   0.010
   Pseudo random numbers                .... off
   Inactive MOs                         .... canonical
   Orbital update algorithm             .... Taylor
   Preconditioner                       .... Diag
   Full preconditioner red. dimension   ....   250
 SOSCF                  CNVSOSCF        .... on
   Start iteration      SOSCFMaxIt      ....   150
   Startup grad/error   SOSCFStart      ....  0.003300
   Hessian update       SOSCFHessUp     .... L-BFGS
 Level Shifting         CNVShift        .... on
   Level shift para.    LevelShift      ....    0.2500
   Turn off err/grad.   ShiftErr        ....    0.0010
 Zerner damping         CNVZerner       .... off
 Static damping         CNVDamp         .... on
   Fraction old density DampFac         ....    0.7000
   Max. Damping (<1)    DampMax         ....    0.9800
   Min. Damping (>=0)   DampMin         ....    0.0000
   Turn off err/grad.   DampErr         ....    0.1000

SCF Procedure:
 Maximum # iterations   MaxIter         ....   500
 SCF integral mode      SCFMode         .... Conventional
 Integral Threshold     Thresh          ....  2.500e-11 Eh
 Primitive CutOff       TCut            ....  2.500e-12 Eh
 Integral Buffer length BufferLength    .... 1048576
 Integral index format  IndFormat       ....     0
 Integral value format  ValFormat       ....     0
 Integral Storage       Thresh          ....  2.500e-11 Eh

Convergence Tolerance:
 Convergence Check Mode ConvCheckMode   .... Total+1el-Energy
 Convergence forced     ConvForced      .... 0
 Energy Change          TolE            ....  1.000e-08 Eh
 1-El. energy change                    ....  1.000e-05 Eh
 Orbital Gradient       TolG            ....  1.000e-05
 Orbital Rotation angle TolX            ....  1.000e-05
 DIIS Error             TolErr          ....  5.000e-07

--------------------------------
INITIAL GUESS: MINIMAL BASIS EHT
--------------------------------
The minimal basis has 8 functions
EHT matrix was diagonalized
Basis set overlap was calculated now projecting the orbitals
Using GuessMode=FMatrix for the initial guess
C*T matrix was formed
Effective Fockian was calculated
Effective Fockian was diagonalized
Initial density was built
                      ------------------
                      INITIAL GUESS DONE
                      ------------------
             **** ENERGY FILE WAS UPDATED (Orca-6.en.tmp) ****
Finished Guess after   0.9 sec
Maximum memory used throughout the entire GUESS-calculation: 2.0 MB


           ************************************************************
           *        Program running with 10 parallel MPI-processes    *
           *              working on a common directory               *
           ************************************************************

-------------------------------------------------------------------------------------------
                                      ORCA LEAN-SCF
                              memory conserving SCF solver
-------------------------------------------------------------------------------------------


 InCore treatment chosen for four center integrals:
   Memory dedicated               ...    4000 MB
   Memory needed                  ...      0 MB
   Number of tiny    integrals    ...       0
   Number of small   integrals    ...       0
   Number of regular integrals    ...     466

----------------------------------------D-I-I-S--------------------------------------------
Iteration    Energy (Eh)           Delta-E    RMSDP     MaxDP     DIISErr   Damp  Time(sec)
-------------------------------------------------------------------------------------------
    1    -55.6968806156669274     0.00e+00  2.12e-02  5.45e-02  1.36e-01  0.700   0.1
    2    -55.7120560472423989    -1.52e-02  1.91e-02  4.77e-02  1.01e-01  0.700   0.1
                               ***Turning on AO-DIIS***
    3    -55.7232874116624117    -1.12e-02  1.56e-02  4.39e-02  7.02e-02  0.700   0.1
    4    -55.7314812886801008    -8.19e-03  4.24e-02  1.34e-01  5.08e-02  0.000   0.1
    5    -55.7533928774313665    -2.19e-02  7.42e-03  2.88e-02  6.41e-03  0.000   0.1
                              *** Initializing SOSCF ***
---------------------------------------S-O-S-C-F--------------------------------------
Iteration    Energy (Eh)           Delta-E    RMSDP     MaxDP     MaxGrad    Time(sec)
--------------------------------------------------------------------------------------
    6    -55.7537637127219909    -3.71e-04  4.11e-03  1.43e-02  2.44e-03     0.1
    7    -55.7538504803348900    -8.68e-05  1.30e-03  3.49e-03  1.82e-03     0.1
    8    -55.7538619223075358    -1.14e-05  1.11e-03  3.30e-03  8.10e-04     0.1
    9    -55.7538649609853678    -3.04e-06  2.79e-05  6.84e-05  4.44e-05     0.1
   10    -55.7538649662740085    -5.29e-09  5.57e-06  1.24e-05  9.73e-06     0.1
                 **** Energy Check signals convergence ****

               *****************************************************
               *                     SUCCESS                       *
               *           SCF CONVERGED AFTER  10 CYCLES          *
               *****************************************************

             **** ENERGY FILE WAS UPDATED (Orca-6.en.tmp) ****

----------------
TOTAL SCF ENERGY
----------------

Total Energy       :        -55.75386496627401 Eh           -1517.13980 eV

Components:
Nuclear Repulsion  :         10.62251187314097 Eh             289.05324 eV
Electronic Energy  :        -66.37637683941497 Eh           -1806.19304 eV
One Electron Energy:        -97.21506181413645 Eh           -2645.35632 eV
Two Electron Energy:         30.83868497472147 Eh             839.16328 eV

Virial components:
Potential Energy   :       -111.61311166904008 Eh           -3037.14717 eV
Kinetic Energy     :         55.85924670276606 Eh            1520.00738 eV
Virial Ratio       :          1.99811344150320

---------------
SCF CONVERGENCE
---------------

  Last Energy change         ...    5.2886e-09  Tolerance :   1.0000e-08
  Last MAX-Density change    ...    1.2360e-05  Tolerance :   1.0000e-07
  Last RMS-Density change    ...    5.5665e-06  Tolerance :   5.0000e-09
  Last DIIS Error            ...    2.4436e-03  Tolerance :   5.0000e-07
  Last Orbital Gradient      ...    9.7265e-06  Tolerance :   1.0000e-05
  Last Orbital Rotation      ...    7.1205e-06  Tolerance :   1.0000e-05


----------------
ORBITAL ENERGIES
----------------

  NO   OCC          E(Eh)            E(eV) 
   0   2.0000     -15.316340      -416.7788 
   1   2.0000      -1.024725       -27.8842 
   2   2.0000      -0.564297       -15.3553 
   3   2.0000      -0.505565       -13.7571 
   4   2.0000      -0.357919        -9.7395 
   5   0.0000       0.499228        13.5847 
   6   0.0000       0.559962        15.2373 
   7   0.0000       0.680967        18.5301 
*Only the first 10 virtual orbitals were printed.

                    ********************************
                    * MULLIKEN POPULATION ANALYSIS *
                    ********************************

-----------------------
MULLIKEN ATOMIC CHARGES
-----------------------
   0 N :   -0.535027
   1 H :    0.195007
   2 H :    0.170006
   3 H :    0.170014
Sum of atomic charges:   -0.0000000

--------------------------------
MULLIKEN REDUCED ORBITAL CHARGES
--------------------------------
  0 N s       :     3.550520  s :     3.550520
      pz      :     1.131394  p :     3.984507
      px      :     1.258159
      py      :     1.594954

  1 H s       :     0.804993  s :     0.804993

  2 H s       :     0.829994  s :     0.829994

  3 H s       :     0.829986  s :     0.829986



                     *******************************
                     * LOEWDIN POPULATION ANALYSIS *
                     *******************************

----------------------
LOEWDIN ATOMIC CHARGES
----------------------
   0 N :   -0.396711
   1 H :    0.141463
   2 H :    0.127623
   3 H :    0.127625

-------------------------------
LOEWDIN REDUCED ORBITAL CHARGES
-------------------------------
  0 N s       :     3.395654  s :     3.395654
      pz      :     1.137556  p :     4.001058
      px      :     1.265769
      py      :     1.597732

  1 H s       :     0.858537  s :     0.858537

  2 H s       :     0.872377  s :     0.872377

  3 H s       :     0.872375  s :     0.872375



                      *****************************
                      * MAYER POPULATION ANALYSIS *
                      *****************************

  NA   - Mulliken gross atomic population
  ZA   - Total nuclear charge
  QA   - Mulliken gross atomic charge
  VA   - Mayer's total valence
  BVA  - Mayer's bonded valence
  FA   - Mayer's free valence

  ATOM       NA         ZA         QA         VA         BVA        FA
  0 N      7.5350     7.0000    -0.5350     2.8407     2.8407    -0.0000
  1 H      0.8050     1.0000     0.1950     0.9620     0.9620     0.0000
  2 H      0.8300     1.0000     0.1700     0.9711     0.9711    -0.0000
  3 H      0.8300     1.0000     0.1700     0.9711     0.9711    -0.0000

  Mayer bond orders larger than 0.100000
B(  0-N ,  1-H ) :   0.9367 B(  0-N ,  2-H ) :   0.9520 B(  0-N ,  3-H ) :   0.9520 


-------
TIMINGS
-------

Total SCF time: 0 days 0 hours 0 min 1 sec 

Total time                  ....       1.547 sec
Sum of individual times     ....       1.501 sec  ( 97.0%)

SCF preparation             ....       0.836 sec  ( 54.0%)
Fock matrix formation       ....       0.262 sec  ( 16.9%)
  Startup                   ....       0.083 sec  ( 31.5% of F)
  Coulomb+Exchange Fock     ....       0.125 sec  ( 47.7% of F)
Diagonalization             ....       0.000 sec  (  0.0%)
Density matrix formation    ....       0.107 sec  (  6.9%)
Total Energy calculation    ....       0.058 sec  (  3.7%)
Population analysis         ....       0.030 sec  (  1.9%)
Orbital Transformation      ....       0.022 sec  (  1.4%)
Orbital Orthonormalization  ....       0.000 sec  (  0.0%)
DIIS solution               ....       0.128 sec  (  8.3%)
SOSCF solution              ....       0.058 sec  (  3.7%)
Finished LeanSCF after   1.6 sec

Maximum memory used throughout the entire LEANSCF-calculation: 51.0 MB


           ************************************************************
           *        Program running with 10 parallel MPI-processes    *
           *              working on a common directory               *
           ************************************************************

------------------------------------------------------------------------------
                         ORCA PROPERTY INTEGRAL CALCULATIONS
------------------------------------------------------------------------------

GBWName                                   ... Orca-6.gbw
Number of atoms                           ...      4
Number of basis functions                 ...      8
Max core memory                           ...   4000 MB

Dipole integrals                          ... YES
Quadrupole integrals                      ...  NO
Linear momentum integrals                 ...  NO
Angular momentum integrals                ...  NO
Higher moments length integrals           ...  NO
Higher moments velocity integrals         ...  NO
Kinetic energy integrals                  ...  NO
GIAO right hand sides                     ...  NO
GIAO dipole derivative integrals          ...  NO
SOC integrals                             ...  NO
EPR diamagnetic integrals (GIAO)          ...  NO
EPR gauge integrals                       ...  NO
Field gradient integrals                  ...  NO (   0 nuclei)
Spin-dipole/Fermi contact integrals       ...  NO (   0 nuclei)
Contact density integrals                 ...  NO (   0 nuclei)
Nucleus-orbit integrals                   ...  NO (   0 nuclei)
Geometric perturbations                   ...  NO (   4 nuclei)

Choice of electric origin   ... Center of mass
Position of electric origin ... (  0.0574,  0.0994,  0.0000) 
Choice of magnetic origin   ... GIAO
Position of magnetic origin ... (  0.0000,  0.0000,  0.0000) 

Calculating integrals                     ... Electric Dipole (Length)     done (  0.0 sec)

Property integrals calculated in   0.0 sec

Maximum memory used throughout the entire PROPINT-calculation: 2.1 MB


-------------------------------------------------------------------------------
                          DFT DISPERSION CORRECTION                            
                                                                               
                              DFTD3 V3.1  Rev 1                                
                          USING Becke-Johnson damping                          
-------------------------------------------------------------------------------
Hartree-Fock is recognized
Active option DFTDOPT                   ...         4   

molecular C6(AA) [au] = 85.229344 


            DFT-D V3
 parameters
 using HF/MINIX parameters
 s6 scaling factor         :     1.0000 
 a1 scaling factor         :     0.4171 
 s8 scaling factor         :     0.8777 
 a2 scaling factor         :     2.9149 
 ad hoc parameters k1-k3   :    16.0000     1.3333    -4.0000 

 Edisp/kcal,au: -3.333855979244  -0.005312837115 
 E6   /kcal   :  -2.012766836 
 E8   /kcal   :  -1.321089144 
 % E8         :  39.626461124 

-------------------------   ----------------
Dispersion correction           -0.005312837
-------------------------   ----------------

------------------   -----------------
gCP+bas correction         0.005609881
------------------   -----------------
----------------------------   ----------------
Total correction to HF/MINIX        0.000297044
----------------------------   ----------------


-------------------------   --------------------
FINAL SINGLE POINT ENERGY       -55.753567922489
-------------------------   --------------------



           ************************************************************
           *        Program running with 10 parallel MPI-processes    *
           *              working on a common directory               *
           ************************************************************
------------------------------------------------------------------------------
                         ORCA SCF GRADIENT CALCULATION
------------------------------------------------------------------------------

Nuc. rep. gradient        (SHARK) ... done (  0.0 sec)
HCore & Overlap gradient  (SHARK) ... done (  0.0 sec)
Two-electron gradient     (SHARK) ... done (  0.0 sec)
Dispersion correction             ... done (  0.0 sec)

-------------------
DISPERSION GRADIENT
-------------------

   1   N   :    0.000065357    0.000112960   -0.000106155
   2   H   :   -0.000059825   -0.000103604    0.000348431
   3   H   :    0.000138880   -0.000086487   -0.000121106
   4   H   :   -0.000144412    0.000077132   -0.000121170

Difference to translation invariance:
           :    0.0000000000    0.0000000000   -0.0000000000

Difference to rotation invariance:
           :   -0.0000000000   -0.0000000000    0.0000000000

Norm of the Dispersion gradient    ...    0.0004969285
RMS gradient                       ...    0.0001434509
MAX gradient                       ...    0.0003484310
gCP correction                   ... done

------------------
CARTESIAN GRADIENT
------------------

   1   N   :   -0.038464068   -0.066573401    0.073291513
   2   H   :   -0.009534481   -0.016517583    0.068949884
   3   H   :    0.086584364    0.005421440   -0.071125007
   4   H   :   -0.038585816    0.077669545   -0.071116390

Difference to translation invariance:
           :    0.0000000000   -0.0000000000    0.0000000000

Difference to rotation invariance:
           :    0.0000038377   -0.0000022183    0.0000000090

Norm of the Cartesian gradient     ...    0.2038748307
RMS gradient                       ...    0.0588535942
MAX gradient                       ...    0.0865843643

-------
TIMINGS
-------

Total SCF gradient time     ....        0.066 sec

Densities                   ....       0.000 sec  (  0.1%)
One electron gradient       ....       0.003 sec  (  4.1%)
Two electron gradient       ....       0.013 sec  ( 19.4%)

Maximum memory used throughout the entire SCFGRAD-calculation: 22.8 MB
------------------------------------------------------------------------------
                         ORCA GEOMETRY RELAXATION STEP
------------------------------------------------------------------------------

Reading the OPT-File                    .... done
Getting information on internals        .... done
Copying old internal coords+grads       .... done
Making the new internal coordinates     .... (2022 redundants) done
Validating the new internal coordinates .... (2022 redundants) done
Calculating the B-matrix                .... done
Calculating the G,G- and P matrices     .... done
Transforming gradient to internals      .... done
Projecting the internal gradient        .... done
Number of atoms                         ....   4
Number of internal coordinates          ....   7
Current Energy                          ....   -55.753567922 Eh
Current gradient norm                   ....     0.203874831 Eh/bohr
Maximum allowed component of the step   ....  0.300
Current trust radius                    ....  0.300
Evaluating the initial hessian          ....  (Almloef) done
Projecting the Hessian                  .... done
Forming the augmented Hessian           .... done
Diagonalizing the augmented Hessian     .... done
Last element of RFO vector              ....  0.887529978
Lowest eigenvalues of augmented Hessian:
 -0.090093278  0.084729617  0.247439732  0.256532971  0.265795026
Length of the computed step             ....  0.519137364
Warning: the length of the step is outside the trust region - taking restricted step instead
The input lambda is                     ....     0.081579
   iter:   5  x=    0.074807  g= 8389.892983 f(x)=    22.293942
   iter:  10  x=   -0.042435  g=    9.527858 f(x)=     0.605141
   iter:  15  x=   -0.332184  g=    0.311723 f(x)=     0.000262
The output lambda is                    ....    -0.332186 (18 iterations)
The final length of the internal step   ....  0.300000000
Converting the step to Cartesian space:
 Initial RMS(Int)=    0.1133893419
Transforming coordinates:
 Iter   0:  RMS(Cart)=    0.0817748894 RMS(Int)=    0.1136390060
 Iter   5:  RMS(Cart)=    0.0000001109 RMS(Int)=    0.0000001855
done
Storing new coordinates                 .... done

                                .--------------------.
          ----------------------|Geometry convergence|-------------------------
          Item                value                   Tolerance       Converged
          ---------------------------------------------------------------------
          RMS gradient        0.0663199682            0.0001000000      NO
          MAX gradient        0.1098165893            0.0003000000      NO
          RMS step            0.1133893419            0.0020000000      NO
          MAX step            0.1894700359            0.0040000000      NO
          ........................................................
          Max(Bonds)      0.1003      Max(Angles)    2.51
          Max(Dihed)        0.00      Max(Improp)    2.78
          ---------------------------------------------------------------------

The optimization has not yet converged - more geometry cycles are needed


    ---------------------------------------------------------------------------
                         Redundant Internal Coordinates
                            (Angstroem and degrees)

        Definition                    Value    dE/dq     Step     New-Value
    ----------------------------------------------------------------------------
     1. B(H   1,N   0)                1.0890  0.068950 -0.0556    1.0334   
     2. B(H   2,N   0)                1.1622  0.109817 -0.1003    1.0619   
     3. B(H   3,N   0)                1.1621  0.109789 -0.1002    1.0619   
     4. A(H   1,N   0,H   3)          117.94  0.018986   -2.18    115.76   
     5. A(H   2,N   0,H   3)           99.83 -0.028101    2.51    102.34   
     6. A(H   1,N   0,H   2)          117.94  0.018983   -2.18    115.76   
     7. I(H   1,H   3,H   2,N   0)    -43.31  0.020262   -2.78    -46.10   
    ----------------------------------------------------------------------------

Geometry step timings:
Preparation and reading OPT file:      0.000 s ( 7.106 %)
Internal coordinates            :      0.000 s ( 3.749 %)
B/P matrices and projection     :      0.000 s ( 5.352 %)
Hessian update/contruction      :      0.003 s (54.401 %)
Making the step                 :      0.001 s ( 9.381 %)
Converting the step to Cartesian:      0.000 s ( 1.660 %)
Storing new data                :      0.000 s ( 4.849 %)
Checking convergence            :      0.000 s ( 0.093 %)
Final printing                  :      0.001 s (13.223 %)
Total time                      :      0.005 s

Time for energy+gradient        :      7.932 s
Time for complete geometry iter :      9.664 s

         *************************************************************
         *                GEOMETRY OPTIMIZATION CYCLE   2            *
         *************************************************************
---------------------------------
CARTESIAN COORDINATES (ANGSTROEM)
---------------------------------
  N      0.008253    0.014278   -0.024938
  H      0.013844    0.023965    1.008373
  H      0.962065    0.011821   -0.491710
  H     -0.470802    0.839023   -0.491725

----------------------------
CARTESIAN COORDINATES (A.U.)
----------------------------
  NO LB      ZA    FRAG     MASS         X           Y           Z
   0 N     7.0000    0    14.007    0.015596    0.026981   -0.047125
   1 H     1.0000    0     1.008    0.026161    0.045288    1.905548
   2 H     1.0000    0     1.008    1.818039    0.022338   -0.929198
   3 H     1.0000    0     1.008   -0.889687    1.585523   -0.929225

--------------------------------
INTERNAL COORDINATES (ANGSTROEM)
--------------------------------
 N      0   0   0     0.000000000000     0.00000000     0.00000000
 H      1   0   0     1.033370914214     0.00000000     0.00000000
 H      1   2   0     1.061903783379   115.76612281     0.00000000
 H      1   2   3     1.061879454982   115.76743709   240.22433208

---------------------------
INTERNAL COORDINATES (A.U.)
---------------------------
 N      0   0   0     0.000000000000     0.00000000     0.00000000
 H      1   0   0     1.952788022625     0.00000000     0.00000000
 H      1   2   0     2.006707331162   115.76612281     0.00000000
 H      1   2   3     2.006661357154   115.76743709   240.22433208



           ************************************************************
           *        Program running with 10 parallel MPI-processes    *
           *              working on a common directory               *
           ************************************************************
------------------------------------------------------------------------------
                   ___                                                        
                  /   \      - P O W E R E D   B Y -                         
                 /     \                                                     
                 |  |  |   _    _      __       _____    __    __             
                 |  |  |  | |  | |    /  \     |  _  \  |  |  /  |          
                  \  \/   | |  | |   /    \    | | | |  |  | /  /          
                 / \  \   | |__| |  /  /\  \   | |_| |  |  |/  /          
                |  |  |   |  __  | /  /__\  \  |    /   |      \           
                |  |  |   | |  | | |   __   |  |    \   |  |\   \          
                \     /   | |  | | |  |  |  |  | |\  \  |  | \   \       
                 \___/    |_|  |_| |__|  |__|  |_| \__\ |__|  \__/        
                                                                              
                      - O R C A' S   B I G   F R I E N D -                    
                                      &                                       
                       - I N T E G R A L  F E E D E R -                       
                                                                              
 v1 FN, 2020, v2 2021, v3 2022-2024                                           
------------------------------------------------------------------------------


----------------------
SHARK INTEGRAL PACKAGE
----------------------

Number of atoms                             ...      4
Number of basis functions                   ...      8
Number of shells                            ...      6
Maximum angular momentum                    ...      1
Integral batch strategy                     ... SHARK/LIBINT Hybrid
RI-J (if used) integral strategy            ... SPLIT-RIJ (Revised 2003 algorithm where possible)
Printlevel                                  ...      1
Contraction scheme used                     ... SEGMENTED contraction
Prescreening option                         ... SCHWARTZ
   Thresh                                   ... 2.500e-11
   Tcut                                     ... 2.500e-12
   Tpresel                                  ... 2.500e-12 
Coulomb Range Separation                    ... NOT USED
Exchange Range Separation                   ... NOT USED
Multipole approximations                    ... NOT USED
Finite Nucleus Model                        ... NOT USED
CABS basis                                  ... NOT available
Auxiliary Coulomb fitting basis             ... NOT available
Auxiliary J/K fitting basis                 ... NOT available
Auxiliary Correlation fitting basis         ... NOT available
Auxiliary 'external' fitting basis          ... NOT available

Checking pre-screening integrals            ... done (  0.0 sec) Dimension = 6
Check shell pair data                       ... done (  0.0 sec)
Shell pair information
Shell pair cut-off parameter TPreSel        ...   2.5e-12
Total number of shell pairs                 ...        21
Shell pairs after pre-screening             ...        21
Total number of primitive shell pairs       ...       189
Primitive shell pairs kept                  ...       186
          la=0 lb=0:     15 shell pairs
          la=1 lb=0:      5 shell pairs
          la=1 lb=1:      1 shell pairs

Calculating one electron integrals          ... done (  0.0 sec)
Calculating Nuclear repulsion               ... done (  0.0 sec) ENN=     11.477504272211 Eh
Calculating 4-index integrals               ...     -> SHARK/Ints2Disk: Thresh =     2.500000e-11 TCut=    2.500000e-12 
    -> calling libint FockFlag=2 Lmax_loc=1
    ->Total LIBINT loop time =    0.000 sec
    -> L=0 0 0 0:     0.000 sec done=       120 (=100.0%) skipped=         0 
    -> L=1 0 0 0:     0.000 sec done=        75 (=100.0%) skipped=         0 
    -> L=1 0 1 0:     0.000 sec done=        15 (=100.0%) skipped=         0 
    -> L=1 1 0 0:     0.000 sec done=        15 (=100.0%) skipped=         0 
    -> L=1 1 1 0:     0.000 sec done=         5 (=100.0%) skipped=         0 
    -> L=1 1 1 1:     0.000 sec done=         1 (=100.0%) skipped=         0 
    ->Total SHARK integral loop time =    0.001 sec
    -> Total Integral generation matrix time =    0.016 sec
    -> Number of small integrals   =         0
    -> Number of medium integrals  =         1
    -> Number of large integrals   =       578
    -> Number of MB stored         =         0 MB

done (  0.0 sec)

Diagonalization of the overlap matrix:
Smallest eigenvalue                        ... 2.935e-01
Time for diagonalization                   ...    0.000 sec
Threshold for overlap eigenvalues          ... 1.000e-07
Number of eigenvalues below threshold      ... 0
Time for construction of square roots      ...    0.002 sec
Total time needed                          ...    0.005 sec

-------------------
DFT GRID GENERATION
-------------------

General Integration Accuracy     IntAcc      ... 4.388
Radial Grid Type                 RadialGrid  ... OptM3 with GC (2021)
Angular Grid (max. ang.)         AngularGrid ... 4 (Lebedev-302)
Angular grid pruning method      GridPruning ... 4 (adaptive)
Weight generation scheme         WeightScheme... mBecke (2022)
Basis function cutoff            BFCut       ... 1.0000e-11
Integration weight cutoff        WCut        ... 1.0000e-14
Partially contracted basis set               ... off
Rotationally invariant grid construction     ... off
Angular grids for H and He will be reduced by one unit

Total number of grid points                  ...    16015
Total number of batches                      ...      252
Average number of points per batch           ...       63
Average number of grid points per atom       ...     4004
Initializing property integral containers    ... done (  0.0 sec)

SHARK setup successfully completed in   0.2 seconds

Maximum memory used throughout the entire STARTUP-calculation: 29.3 MB


           ************************************************************
           *        Program running with 10 parallel MPI-processes    *
           *              working on a common directory               *
           ************************************************************
Occupation numbers will be reassigned to an Aufbau configuration
             **** ENERGY FILE WAS UPDATED (Orca-6.en.tmp) ****
Finished Guess after   0.9 sec
Maximum memory used throughout the entire GUESS-calculation: 2.0 MB


           ************************************************************
           *        Program running with 10 parallel MPI-processes    *
           *              working on a common directory               *
           ************************************************************

 InCore treatment chosen for four center integrals:
   Memory dedicated               ...    4000 MB
   Memory needed                  ...      0 MB
   Number of tiny    integrals    ...       0
   Number of small   integrals    ...       1
   Number of regular integrals    ...     578

----------------------------------------D-I-I-S--------------------------------------------
Iteration    Energy (Eh)           Delta-E    RMSDP     MaxDP     DIISErr   Damp  Time(sec)
-------------------------------------------------------------------------------------------
    1    -55.7896024002352107     0.00e+00  2.79e-03  6.13e-03  2.78e-02  0.700   0.1
    2    -55.7898771461891698    -2.75e-04  2.51e-03  5.24e-03  2.01e-02  0.700   0.1
                               ***Turning on AO-DIIS***
    3    -55.7900832013730650    -2.06e-04  2.18e-03  6.11e-03  1.45e-02  0.700   0.1
    4    -55.7902351485954853    -1.52e-04  5.85e-03  1.79e-02  1.02e-02  0.000   0.1
                              *** Initializing SOSCF ***
---------------------------------------S-O-S-C-F--------------------------------------
Iteration    Energy (Eh)           Delta-E    RMSDP     MaxDP     MaxGrad    Time(sec)
--------------------------------------------------------------------------------------
    5    -55.7906399983614989    -4.05e-04  8.55e-04  3.24e-03  7.45e-04     0.1
    6    -55.7906452078519237    -5.21e-06  4.74e-04  1.63e-03  6.38e-04     0.1
    7    -55.7906465364898168    -1.33e-06  3.29e-04  1.12e-03  2.64e-04     0.1
    8    -55.7906468057116456    -2.69e-07  4.99e-06  1.64e-05  1.09e-05     0.1
    9    -55.7906468059642577    -2.53e-10  1.72e-06  4.90e-06  2.31e-06     0.1
                 **** Energy Check signals convergence ****

               *****************************************************
               *                     SUCCESS                       *
               *           SCF CONVERGED AFTER   9 CYCLES          *
               *****************************************************

             **** ENERGY FILE WAS UPDATED (Orca-6.en.tmp) ****

----------------
TOTAL SCF ENERGY
----------------

Total Energy       :        -55.79064680596426 Eh           -1518.14068 eV

Components:
Nuclear Repulsion  :         11.47750427221131 Eh             312.31877 eV
Electronic Energy  :        -67.26815107817556 Eh           -1830.45945 eV
One Electron Energy:        -98.65834333839716 Eh           -2684.63001 eV
Two Electron Energy:         31.39019226022160 Eh             854.17056 eV

Virial components:
Potential Energy   :       -111.72360618565727 Eh           -3040.15388 eV
Kinetic Energy     :         55.93295937969302 Eh            1522.01320 eV
Virial Ratio       :          1.99745565807161

---------------
SCF CONVERGENCE
---------------

  Last Energy change         ...    2.5261e-10  Tolerance :   1.0000e-08
  Last MAX-Density change    ...    4.8965e-06  Tolerance :   1.0000e-07
  Last RMS-Density change    ...    1.7160e-06  Tolerance :   5.0000e-09
  Last DIIS Error            ...    7.4501e-04  Tolerance :   5.0000e-07
  Last Orbital Gradient      ...    2.3080e-06  Tolerance :   1.0000e-05
  Last Orbital Rotation      ...    2.1696e-06  Tolerance :   1.0000e-05


Total SCF time: 0 days 0 hours 0 min 1 sec 
Finished LeanSCF after   1.5 sec

Maximum memory used throughout the entire LEANSCF-calculation: 51.1 MB


           ************************************************************
           *        Program running with 10 parallel MPI-processes    *
           *              working on a common directory               *
           ************************************************************

------------------------------------------------------------------------------
                         ORCA PROPERTY INTEGRAL CALCULATIONS
------------------------------------------------------------------------------

GBWName                                   ... Orca-6.gbw
Number of atoms                           ...      4
Number of basis functions                 ...      8
Max core memory                           ...   4000 MB

Dipole integrals                          ... YES
Quadrupole integrals                      ...  NO
Linear momentum integrals                 ...  NO
Angular momentum integrals                ...  NO
Higher moments length integrals           ...  NO
Higher moments velocity integrals         ...  NO
Kinetic energy integrals                  ...  NO
GIAO right hand sides                     ...  NO
GIAO dipole derivative integrals          ...  NO
SOC integrals                             ...  NO
EPR diamagnetic integrals (GIAO)          ...  NO
EPR gauge integrals                       ...  NO
Field gradient integrals                  ...  NO (   0 nuclei)
Spin-dipole/Fermi contact integrals       ...  NO (   0 nuclei)
Contact density integrals                 ...  NO (   0 nuclei)
Nucleus-orbit integrals                   ...  NO (   0 nuclei)
Geometric perturbations                   ...  NO (   4 nuclei)

Choice of electric origin   ... Center of mass
Position of electric origin ... (  0.0693,  0.1200, -0.0360) 
Choice of magnetic origin   ... GIAO
Position of magnetic origin ... (  0.0000,  0.0000,  0.0000) 

Calculating integrals                     ... Electric Dipole (Length)     done (  0.0 sec)

Property integrals calculated in   0.0 sec

Maximum memory used throughout the entire PROPINT-calculation: 2.1 MB


-------------------------------------------------------------------------------
                          DFT DISPERSION CORRECTION                            
                                                                               
                              DFTD3 V3.1  Rev 1                                
                          USING Becke-Johnson damping                          
-------------------------------------------------------------------------------
-------------------------   ----------------
Dispersion correction           -0.005442026
-------------------------   ----------------

------------------   -----------------
gCP+bas correction         0.003367728
------------------   -----------------
----------------------------   ----------------
Total correction to HF/MINIX       -0.002074298
----------------------------   ----------------


-------------------------   --------------------
FINAL SINGLE POINT ENERGY       -55.792721104324
-------------------------   --------------------



           ************************************************************
           *        Program running with 10 parallel MPI-processes    *
           *              working on a common directory               *
           ************************************************************
------------------------------------------------------------------------------
                         ORCA SCF GRADIENT CALCULATION
------------------------------------------------------------------------------

Nuc. rep. gradient        (SHARK) ... done (  0.0 sec)
HCore & Overlap gradient  (SHARK) ... done (  0.0 sec)
Two-electron gradient     (SHARK) ... done (  0.0 sec)
Dispersion correction             ... done (  0.0 sec)

-------------------
DISPERSION GRADIENT
-------------------

   1   N   :   -0.000000406   -0.000000711   -0.000004484
   2   H   :   -0.000044496   -0.000077065    0.000293382
   3   H   :    0.000203028   -0.000065361   -0.000144447
   4   H   :   -0.000158126    0.000143137   -0.000144451

Difference to translation invariance:
           :    0.0000000000    0.0000000000    0.0000000000

Difference to rotation invariance:
           :   -0.0000000000   -0.0000000000   -0.0000000000

Norm of the Dispersion gradient    ...    0.0004761598
RMS gradient                       ...    0.0001374555
MAX gradient                       ...    0.0002933820
gCP correction                   ... done

------------------
CARTESIAN GRADIENT
------------------

   1   N   :   -0.019458084   -0.033665917    0.048328748
   2   H   :   -0.005385417   -0.009331186    0.024523115
   3   H   :    0.034865468    0.008547021   -0.036429133
   4   H   :   -0.010021967    0.034450081   -0.036422730

Difference to translation invariance:
           :   -0.0000000000   -0.0000000000    0.0000000000

Difference to rotation invariance:
           :   -0.0000000126    0.0000000069   -0.0000000011

Norm of the Cartesian gradient     ...    0.0989683438
RMS gradient                       ...    0.0285697000
MAX gradient                       ...    0.0483287476

-------
TIMINGS
-------

Total SCF gradient time     ....        0.054 sec

Densities                   ....       0.000 sec  (  0.1%)
One electron gradient       ....       0.002 sec  (  3.4%)
Two electron gradient       ....       0.002 sec  (  3.8%)

Maximum memory used throughout the entire SCFGRAD-calculation: 22.8 MB
------------------------------------------------------------------------------
                         ORCA GEOMETRY RELAXATION STEP
------------------------------------------------------------------------------

Reading the OPT-File                    .... done
Getting information on internals        .... done
Copying old internal coords+grads       .... done
Making the new internal coordinates     .... (2022 redundants) done
Validating the new internal coordinates .... (2022 redundants) done
Calculating the B-matrix                .... done
Calculating the G,G- and P matrices     .... done
Transforming gradient to internals      .... done
Projecting the internal gradient        .... done
Number of atoms                         ....   4
Number of internal coordinates          ....   7
Current Energy                          ....   -55.792721104 Eh
Current gradient norm                   ....     0.098968344 Eh/bohr
Maximum allowed component of the step   ....  0.300
Current trust radius                    ....  0.300
Updating the Hessian (BFGS)             .... done
Forming the augmented Hessian           .... done
Diagonalizing the augmented Hessian     .... done
Last element of RFO vector              ....  0.967297005
Lowest eigenvalues of augmented Hessian:
 -0.020239864  0.084364577  0.244209817  0.247439741  0.265795025
Length of the computed step             ....  0.262221857
The final length of the internal step   ....  0.262221857
Converting the step to Cartesian space:
 Initial RMS(Int)=    0.0991105460
Transforming coordinates:
 Iter   0:  RMS(Cart)=    0.0654194257 RMS(Int)=    0.0998671859
 Iter   5:  RMS(Cart)=    0.0000002148 RMS(Int)=    0.0000002891
done
Storing new coordinates                 .... done
The predicted energy change is          ....    -0.010815781
Previously predicted energy change      ....    -0.041203274
Actually observed energy change         ....    -0.039153182
Ratio of predicted to observed change   ....     0.950244429
New trust radius                        ....     0.450000000

                                .--------------------.
          ----------------------|Geometry convergence|-------------------------
          Item                value                   Tolerance       Converged
          ---------------------------------------------------------------------
          Energy change      -0.0391531818            0.0000050000      NO
          RMS gradient        0.0298090326            0.0001000000      NO
          MAX gradient        0.0473095771            0.0003000000      NO
          RMS step            0.0991105460            0.0020000000      NO
          MAX step            0.1445125787            0.0040000000      NO
          ........................................................
          Max(Bonds)      0.0765      Max(Angles)    7.45
          Max(Dihed)        0.00      Max(Improp)    1.72
          ---------------------------------------------------------------------

The optimization has not yet converged - more geometry cycles are needed


    ---------------------------------------------------------------------------
                         Redundant Internal Coordinates
                            (Angstroem and degrees)

        Definition                    Value    dE/dq     Step     New-Value
    ----------------------------------------------------------------------------
     1. B(H   1,N   0)                1.0334  0.024405 -0.0288    1.0045   
     2. B(H   2,N   0)                1.0619  0.047310 -0.0765    0.9854   
     3. B(H   3,N   0)                1.0619  0.047289 -0.0764    0.9855   
     4. A(H   1,N   0,H   3)          115.77  0.012662   -3.20    112.57   
     5. A(H   2,N   0,H   3)          102.34 -0.027406    7.45    109.80   
     6. A(H   1,N   0,H   2)          115.77  0.012658   -3.20    112.57   
     7. I(H   1,H   3,H   2,N   0)    -46.11  0.008853   -1.72    -47.83   
    ----------------------------------------------------------------------------

Geometry step timings:
Preparation and reading OPT file:      0.000 s ( 8.523 %)
Internal coordinates            :      0.000 s ( 0.450 %)
B/P matrices and projection     :      0.000 s ( 2.049 %)
Hessian update/contruction      :      0.002 s (59.910 %)
Making the step                 :      0.000 s ( 1.225 %)
Converting the step to Cartesian:      0.000 s ( 0.650 %)
Storing new data                :      0.000 s ( 5.174 %)
Checking convergence            :      0.000 s ( 6.123 %)
Final printing                  :      0.001 s (15.846 %)
Total time                      :      0.004 s

Time for energy+gradient        :      7.213 s
Time for complete geometry iter :      8.916 s

         *************************************************************
         *                GEOMETRY OPTIMIZATION CYCLE   3            *
         *************************************************************
---------------------------------
CARTESIAN COORDINATES (ANGSTROEM)
---------------------------------
  N      0.023192    0.040125   -0.060653
  H      0.024824    0.042970    0.943864
  H      0.931121   -0.000229   -0.441588
  H     -0.465778    0.806222   -0.441623

----------------------------
CARTESIAN COORDINATES (A.U.)
----------------------------
  NO LB      ZA    FRAG     MASS         X           Y           Z
   0 N     7.0000    0    14.007    0.043827    0.075825   -0.114618
   1 H     1.0000    0     1.008    0.046911    0.081201    1.783645
   2 H     1.0000    0     1.008    1.759563   -0.000433   -0.834481
   3 H     1.0000    0     1.008   -0.880193    1.523538   -0.834546

--------------------------------
INTERNAL COORDINATES (ANGSTROEM)
--------------------------------
 N      0   0   0     0.000000000000     0.00000000     0.00000000
 H      1   0   0     1.004523038475     0.00000000     0.00000000
 H      1   2   0     0.985431021196   112.65516691     0.00000000
 H      1   2   3     0.985461405269   112.65565544   235.04543308

---------------------------
INTERNAL COORDINATES (A.U.)
---------------------------
 N      0   0   0     0.000000000000     0.00000000     0.00000000
 H      1   0   0     1.898273437933     0.00000000     0.00000000
 H      1   2   0     1.862194753930   112.65516691     0.00000000
 H      1   2   3     1.862252171507   112.65565544   235.04543308



           ************************************************************
           *        Program running with 10 parallel MPI-processes    *
           *              working on a common directory               *
           ************************************************************
------------------------------------------------------------------------------
                   ___                                                        
                  /   \      - P O W E R E D   B Y -                         
                 /     \                                                     
                 |  |  |   _    _      __       _____    __    __             
                 |  |  |  | |  | |    /  \     |  _  \  |  |  /  |          
                  \  \/   | |  | |   /    \    | | | |  |  | /  /          
                 / \  \   | |__| |  /  /\  \   | |_| |  |  |/  /          
                |  |  |   |  __  | /  /__\  \  |    /   |      \           
                |  |  |   | |  | | |   __   |  |    \   |  |\   \          
                \     /   | |  | | |  |  |  |  | |\  \  |  | \   \       
                 \___/    |_|  |_| |__|  |__|  |_| \__\ |__|  \__/        
                                                                              
                      - O R C A' S   B I G   F R I E N D -                    
                                      &                                       
                       - I N T E G R A L  F E E D E R -                       
                                                                              
 v1 FN, 2020, v2 2021, v3 2022-2024                                           
------------------------------------------------------------------------------


----------------------
SHARK INTEGRAL PACKAGE
----------------------

Number of atoms                             ...      4
Number of basis functions                   ...      8
Number of shells                            ...      6
Maximum angular momentum                    ...      1
Integral batch strategy                     ... SHARK/LIBINT Hybrid
RI-J (if used) integral strategy            ... SPLIT-RIJ (Revised 2003 algorithm where possible)
Printlevel                                  ...      1
Contraction scheme used                     ... SEGMENTED contraction
Prescreening option                         ... SCHWARTZ
   Thresh                                   ... 2.500e-11
   Tcut                                     ... 2.500e-12
   Tpresel                                  ... 2.500e-12 
Coulomb Range Separation                    ... NOT USED
Exchange Range Separation                   ... NOT USED
Multipole approximations                    ... NOT USED
Finite Nucleus Model                        ... NOT USED
CABS basis                                  ... NOT available
Auxiliary Coulomb fitting basis             ... NOT available
Auxiliary J/K fitting basis                 ... NOT available
Auxiliary Correlation fitting basis         ... NOT available
Auxiliary 'external' fitting basis          ... NOT available

Checking pre-screening integrals            ... done (  0.0 sec) Dimension = 6
Check shell pair data                       ... done (  0.0 sec)
Shell pair information
Shell pair cut-off parameter TPreSel        ...   2.5e-12
Total number of shell pairs                 ...        21
Shell pairs after pre-screening             ...        21
Total number of primitive shell pairs       ...       189
Primitive shell pairs kept                  ...       186
          la=0 lb=0:     15 shell pairs
          la=1 lb=0:      5 shell pairs
          la=1 lb=1:      1 shell pairs

Calculating one electron integrals          ... done (  0.0 sec)
Calculating Nuclear repulsion               ... done (  0.0 sec) ENN=     12.172583962376 Eh
Calculating 4-index integrals               ...     -> SHARK/Ints2Disk: Thresh =     2.500000e-11 TCut=    2.500000e-12 
    -> calling libint FockFlag=2 Lmax_loc=1
    ->Total LIBINT loop time =    0.000 sec
    -> L=0 0 0 0:     0.029 sec done=       120 (=100.0%) skipped=         0 
    -> L=1 0 0 0:     0.000 sec done=        75 (=100.0%) skipped=         0 
    -> L=1 0 1 0:     0.000 sec done=        15 (=100.0%) skipped=         0 
    -> L=1 1 0 0:     0.000 sec done=        15 (=100.0%) skipped=         0 
    -> L=1 1 1 0:     0.000 sec done=         5 (=100.0%) skipped=         0 
    -> L=1 1 1 1:     0.000 sec done=         1 (=100.0%) skipped=         0 
    ->Total SHARK integral loop time =    0.029 sec
    -> Total Integral generation matrix time =    0.046 sec
    -> Number of small integrals   =         0
    -> Number of medium integrals  =         7
    -> Number of large integrals   =       572
    -> Number of MB stored         =         0 MB

done (  0.0 sec)

Diagonalization of the overlap matrix:
Smallest eigenvalue                        ... 2.560e-01
Time for diagonalization                   ...    0.000 sec
Threshold for overlap eigenvalues          ... 1.000e-07
Number of eigenvalues below threshold      ... 0
Time for construction of square roots      ...    0.002 sec
Total time needed                          ...    0.005 sec

-------------------
DFT GRID GENERATION
-------------------

General Integration Accuracy     IntAcc      ... 4.388
Radial Grid Type                 RadialGrid  ... OptM3 with GC (2021)
Angular Grid (max. ang.)         AngularGrid ... 4 (Lebedev-302)
Angular grid pruning method      GridPruning ... 4 (adaptive)
Weight generation scheme         WeightScheme... mBecke (2022)
Basis function cutoff            BFCut       ... 1.0000e-11
Integration weight cutoff        WCut        ... 1.0000e-14
Partially contracted basis set               ... off
Rotationally invariant grid construction     ... off
Angular grids for H and He will be reduced by one unit

Total number of grid points                  ...    16008
Total number of batches                      ...      252
Average number of points per batch           ...       63
Average number of grid points per atom       ...     4002
Initializing property integral containers    ... done (  0.0 sec)

SHARK setup successfully completed in   0.2 seconds

Maximum memory used throughout the entire STARTUP-calculation: 29.3 MB


           ************************************************************
           *        Program running with 10 parallel MPI-processes    *
           *              working on a common directory               *
           ************************************************************
Occupation numbers will be reassigned to an Aufbau configuration
             **** ENERGY FILE WAS UPDATED (Orca-6.en.tmp) ****
Finished Guess after   0.9 sec
Maximum memory used throughout the entire GUESS-calculation: 2.0 MB


           ************************************************************
           *        Program running with 10 parallel MPI-processes    *
           *              working on a common directory               *
           ************************************************************

 InCore treatment chosen for four center integrals:
   Memory dedicated               ...    4000 MB
   Memory needed                  ...      0 MB
   Number of tiny    integrals    ...       0
   Number of small   integrals    ...       7
   Number of regular integrals    ...     572

----------------------------------------D-I-I-S--------------------------------------------
Iteration    Energy (Eh)           Delta-E    RMSDP     MaxDP     DIISErr   Damp  Time(sec)
-------------------------------------------------------------------------------------------
    1    -55.7938037260660025     0.00e+00  2.84e-03  5.68e-03  2.06e-02  0.700   0.1
    2    -55.7940621007231954    -2.58e-04  2.60e-03  5.38e-03  1.49e-02  0.700   0.1
                               ***Turning on AO-DIIS***
    3    -55.7942640913476851    -2.02e-04  2.40e-03  6.06e-03  1.08e-02  0.700   0.1
    4    -55.7944179826434663    -1.54e-04  6.51e-03  1.77e-02  7.56e-03  0.000   0.1
[...]
Nuclear geometric perturbations         ... YES (  12 perturbations)
Nucleus-orbit perturbations             ...  NO (   0 perturbations)
Spin-dipole/Fermi contact perturbations ...  NO (   0 perturbations)

Total number of real perturbations      ...     12
Total number of imaginary perturbations ...      0
Total number of triplet perturbations   ...      0
Total number of SOC perturbations       ...      0


                                **********************
                                * REAL PERTURBATIONS *
                                **********************



-------------------
SHARK CP-SCF DRIVER
-------------------

Dimension of the orbital basis          ...      8
Dimension of the CPSCF-problem          ...     15
Number of operators                     ...      1
Max. number of iterations               ...    128
Convergence Tolerance                   ... 1.0e-04
Number of perturbations                 ...     12
Perturbation type                       ... REAL

----------------------------
POPLE LINEAR EQUATION SOLVER
----------------------------

  ITERATION   0:   ||err||_max =   5.3386e-02 (   0.1 sec   0/ 12 done)
  ITERATION   1:   ||err||_max =   4.4154e-03 (   0.3 sec   0/ 12 done)
  ITERATION   2:   ||err||_max =   4.2063e-04 (   0.2 sec   0/ 12 done)
  ITERATION   3:   ||err||_max =   6.4512e-05 (   0.1 sec  12/ 12 done)

CP-SCF equations solved in   0.7 sec
Response densities calculated in   0.0 sec

Maximum memory used throughout the entire SCFRESP-calculation: 50.7 MB


           ************************************************************
           *        Program running with 10 parallel MPI-processes    *
           *              working on a common directory               *
           ************************************************************

------------------------------------------------------------------------------
                              ORCA PROPERTY CALCULATIONS
------------------------------------------------------------------------------

GBWName                                 ... Orca-6.gbw
Number of atoms                         ...      4
Number of basis functions               ...      8
Max core memory                         ...   4000 MB

Electric properties:
Dipole moment                           ... YES
Quadrupole moment                       ...  NO
Static polarizability (Dipole/Dipole)   ...  NO
Static polarizability (Dipole/Quad.)    ...  NO
Static polarizability (Quad./Quad.)     ...  NO
Static polarizability (Velocity)        ...  NO

Atomic electric properties:
Dipole moment                           ...  NO
Quadrupole moment                       ...  NO
Static polarizability                   ...  NO

Choice of electric origin               ... Center of mass
Position of electric origin             ...     0.075692     0.130973    -0.099938

General magnetic properties:
Magnetizability                         ...  NO

EPR properties:
g-Tensor (aka g-matrix)                 ...  NO
Zero-Field splitting spin-orbit         ...  NO
Zero-field splitting spin-spin          ...  NO
Hyperfine couplings                     ...  NO (   0 nuclei)
Quadrupole couplings                    ...  NO (   0 nuclei)
Contact density                         ...  NO (   0 nuclei)

NMR properties:
Chemical shifts                         ...  NO (   0 nuclei)
Spin-rotation constants                 ...  NO (   0 nuclei)
Spin-spin couplings                     ...  NO (   0 nuclei,    0 pairs)

Choice of magnetic origin               ... GIAO
Position of magnetic origin             ...     0.000000     0.000000     0.000000

Properties with geometric perturbations:
SCF Hessian                             ... YES
IR spectrum                             ... YES
VCD spectrum                            ...  NO
X-ray spectroscopy properties:
SCF XES/XAS/RIXS spectra                ...  NO


-------------
DIPOLE MOMENT
-------------

Method             : SCF
Type of density    : Electron Density
Multiplicity       :   1
Irrep              :   0
Energy             :   -55.7976693781715625 Eh
Relativity type    : 
Basis              : AO
                                X                 Y                 Z
Electronic contribution:     -0.039616880      -0.068707512      -0.023748049
Nuclear contribution   :      0.356848570       0.618279437       0.213761051
                        -----------------------------------------
Total Dipole Moment    :      0.317231690       0.549571925       0.190013002
                        -----------------------------------------
Magnitude (a.u.)       :      0.662397303
Magnitude (Debye)      :      1.683680140



--------------------
Rotational spectrum 
--------------------
 
Rotational constants in cm-1:            10.212595            10.211463             6.051723 
Rotational constants in MHz :        306165.907372        306131.965708        181426.100152 

Dipole components along the rotational axes: 
x,y,z [a.u.] :    -0.000043    -0.000033     0.662397 
x,y,z [Debye]:    -0.000108    -0.000083     1.683680 

 

Dipole moment calculation done in   0.0 sec 

-----------
SCF HESSIAN
-----------

Occupied/Occupied contributions to the Hessian:
   => Occupied/Occupied contributions              ... done (  0.0 sec)
Perturbed density contributions to the Hessian:
   => Perturbed density contributions              ... done (  0.0 sec)
Explicit contributions to the Hessian:
   => Nuclear repulsion Hessian                    ... done (  0.0 sec)
   => HCore and overlap Hessian                    ... done (  0.0 sec)
   => Exact two electron integral Hessian          ... done (  0.1 sec)
   => Van der Waals-Hessian                        ... done (  0.1 sec)
   => GCP-Hessian                                  ... done (  0.0 sec)
   => Explicit contributions done
Dipole derivatives                                 ... done (  0.0 sec)
Mass weighting the Hessian           ... done
Calculating normal modes             ... done
Scaling frequencies                  ... done

-----------------------
VIBRATIONAL FREQUENCIES
-----------------------

Scaling factor for frequencies =  1.000000000  (already applied!)

     0:       0.00 cm**-1
     1:       0.00 cm**-1
     2:       0.00 cm**-1
     3:       0.00 cm**-1
     4:       0.00 cm**-1
     5:       0.00 cm**-1
     6:     993.18 cm**-1
     7:    1945.41 cm**-1
     8:    1945.52 cm**-1
     9:    3930.89 cm**-1
    10:    4163.53 cm**-1
    11:    4164.27 cm**-1


------------
NORMAL MODES
------------

These modes are the Cartesian displacements weighted by the diagonal matrix
M(i,i)=1/sqrt(m[i]) where m[i] is the mass of the displaced atom
Thus, these vectors are normalized but *not* orthogonal

                  0          1          2          3          4          5    
      0       0.000000   0.000000   0.000000   0.000000   0.000000   0.000000
      1       0.000000   0.000000   0.000000   0.000000   0.000000   0.000000
      2       0.000000   0.000000   0.000000   0.000000   0.000000   0.000000
      3       0.000000   0.000000   0.000000   0.000000   0.000000   0.000000
      4       0.000000   0.000000   0.000000   0.000000   0.000000   0.000000
      5       0.000000   0.000000   0.000000   0.000000   0.000000   0.000000
      6       0.000000   0.000000   0.000000   0.000000   0.000000   0.000000
      7       0.000000   0.000000   0.000000   0.000000   0.000000   0.000000
      8       0.000000   0.000000   0.000000   0.000000   0.000000   0.000000
      9       0.000000   0.000000   0.000000   0.000000   0.000000   0.000000
     10       0.000000   0.000000   0.000000   0.000000   0.000000   0.000000
     11       0.000000   0.000000   0.000000   0.000000   0.000000   0.000000
                  6          7          8          9         10         11    
      0       0.056747  -0.044096   0.041910   0.014237   0.045389  -0.056484
      1       0.098300   0.038345  -0.005196   0.025005  -0.044361   0.012197
      2       0.033989  -0.037261  -0.054949   0.008593   0.052719   0.058893
      3      -0.286643   0.623557  -0.275247   0.013704  -0.002968  -0.013549
      4      -0.496481  -0.201682   0.392417   0.023751  -0.016862  -0.013034
      5       0.001329  -0.036418  -0.053747  -0.576217  -0.543377  -0.605390
      6      -0.126675   0.212757   0.109274  -0.525590  -0.234993   0.721000
      7      -0.506508  -0.228337  -0.354699   0.057498   0.004627  -0.025564
      8      -0.236843   0.632661   0.167580   0.227860   0.099061  -0.279746
      9      -0.375226  -0.223558  -0.416396   0.314056  -0.392762   0.077447
     10      -0.362971  -0.102817   0.034487  -0.428717   0.628671  -0.130895
     11      -0.236786  -0.078475   0.649727   0.228953  -0.288264   0.066767


-----------
IR SPECTRUM
-----------

 Mode   freq       eps      Int      T**2         TX        TY        TZ
       cm**-1   L/(mol*cm) km/mol    a.u.
----------------------------------------------------------------------------
  6:    993.18   0.049013  247.69  0.015400  (-0.059439 -0.102956 -0.035597)
  7:   1945.41   0.002348   11.87  0.000377  ( 0.012348 -0.010739  0.010436)
  8:   1945.52   0.002349   11.87  0.000377  (-0.011738  0.001454  0.015391)
  9:   3930.89   0.000102    0.51  0.000008  (-0.001315 -0.002383 -0.000809)
 10:   4163.53   0.008222   41.55  0.000616  (-0.013652  0.013360 -0.015856)
 11:   4164.27   0.008222   41.55  0.000616  ( 0.016990 -0.003677 -0.017718)

* The epsilon (eps) is given for a Dirac delta lineshape.
** The dipole moment derivative (T) already includes vibrational overlap.

The first frequency considered to be a vibration is 6
The total number of vibrations considered is 6


--------------------------
THERMOCHEMISTRY AT 298.15K
--------------------------

Temperature         ...   298.15 K
Pressure            ...     1.00 atm
Total Mass          ...    17.03 AMU
Quasi RRHO          ...     True
Cut-Off Frequency   ...     1.00 cm^-1

Throughout the following assumptions are being made:
  (1) The electronic state is orbitally nondegenerate
  (2) There are no thermally accessible electronically excited states
  (3) Hindered rotations indicated by low frequency modes are not
      treated as such but are treated as vibrations and this may
      cause some error
  (4) All equations used are the standard statistical mechanics
      equations for an ideal gas
  (5) All vibrations are strictly harmonic

freq.     993.18  E(vib)   ...       0.02 
freq.    1945.41  E(vib)   ...       0.00 
freq.    1945.52  E(vib)   ...       0.00 
freq.    3930.89  E(vib)   ...       0.00 
freq.    4163.53  E(vib)   ...       0.00 
freq.    4164.27  E(vib)   ...       0.00 

------------
INNER ENERGY
------------

The inner energy is: U= E(el) + E(ZPE) + E(vib) + E(rot) + E(trans)
    E(el)   - is the total energy from the electronic structure calculation
              = E(kin-el) + E(nuc-el) + E(el-el) + E(nuc-nuc)
    E(ZPE)  - the the zero temperature vibrational energy from the frequency calculation
    E(vib)  - the the finite temperature correction to E(ZPE) due to population
              of excited vibrational states
    E(rot)  - is the rotational thermal energy
    E(trans)- is the translational thermal energy

Summary of contributions to the inner energy U:
Electronic energy                ...    -55.80147207 Eh
Zero point energy                ...      0.03905418 Eh      24.51 kcal/mol
Thermal vibrational correction   ...      0.00003931 Eh       0.02 kcal/mol
Thermal rotational correction    ...      0.00141627 Eh       0.89 kcal/mol
Thermal translational correction ...      0.00141627 Eh       0.89 kcal/mol
-----------------------------------------------------------------------
Total thermal energy                    -55.75954603 Eh


Summary of corrections to the electronic energy:
(perhaps to be used in another calculation)
Total thermal correction                  0.00287186 Eh       1.80 kcal/mol
Non-thermal (ZPE) correction              0.03905418 Eh      24.51 kcal/mol
-----------------------------------------------------------------------
Total correction                          0.04192604 Eh      26.31 kcal/mol


--------
ENTHALPY
--------

The enthalpy is H = U + kB*T
                kB is Boltzmann's constant
Total thermal energy              ...    -55.75954603 Eh 
Thermal Enthalpy correction       ...      0.00094421 Eh       0.59 kcal/mol
-----------------------------------------------------------------------
Total Enthalpy                    ...    -55.75860182 Eh


Note: Rotational entropy computed according to Herzberg 
Infrared and Raman Spectra, Chapter V,1, Van Nostrand Reinhold, 1945 
Point Group:  C3v, Symmetry Number:   3  
Rotational constants in cm-1:    10.212595    10.211463     6.051723 

Vibrational entropy computed according to the QRRHO of S. Grimme
Chem.Eur.J. 2012 18 9955 using a reference frequency of 100.0 cm-1


-------
ENTROPY
-------

The entropy contributions are T*S = T*(S(el)+S(vib)+S(rot)+S(trans))
     S(el)   - electronic entropy
     S(vib)  - vibrational entropy
     S(rot)  - rotational entropy
     S(trans)- translational entropy
The entropies will be listed as multiplied by the temperature to get
units of energy

Electronic entropy                ...      0.00000000 Eh      0.00 kcal/mol
Vibrational entropy               ...      0.00004735 Eh      0.03 kcal/mol
Rotational entropy                ...      0.00542973 Eh      3.41 kcal/mol
Translational entropy             ...      0.01636425 Eh     10.27 kcal/mol
-----------------------------------------------------------------------
Final entropy term                ...      0.02184133 Eh     13.71 kcal/mol

In case the symmetry of your molecule has not been determined correctly
or in case you have a reason to use a different symmetry number we print 
out the resulting rotational entropy values for sn=1,12:

 non-linear molecules -----------------------------------
|  sn= 1 | S(rot)=       0.00646702 Eh      4.06 kcal/mol|
|  sn= 2 | S(rot)=       0.00581256 Eh      3.65 kcal/mol|
|  sn= 3 | S(rot)=       0.00542973 Eh      3.41 kcal/mol|
|  sn= 4 | S(rot)=       0.00515811 Eh      3.24 kcal/mol|
|  sn= 5 | S(rot)=       0.00494742 Eh      3.10 kcal/mol|
|  sn= 6 | S(rot)=       0.00477527 Eh      3.00 kcal/mol|
|  sn= 7 | S(rot)=       0.00462973 Eh      2.91 kcal/mol|
|  sn= 8 | S(rot)=       0.00450365 Eh      2.83 kcal/mol|
|  sn= 9 | S(rot)=       0.00439244 Eh      2.76 kcal/mol|
|  sn=10 | S(rot)=       0.00429296 Eh      2.69 kcal/mol|
|  sn=11 | S(rot)=       0.00420297 Eh      2.64 kcal/mol|
|  sn=12 | S(rot)=       0.00412082 Eh      2.59 kcal/mol|
 linear molecules ---------------------------------------
|  Dinfh | S(rot)=       0.00362596 Eh      2.28 kcal/mol|
|  Cinfv | S(rot)=       0.00428041 Eh      2.69 kcal/mol|
 --------------------------------------------------------


-------------------
GIBBS FREE ENERGY
-------------------

The Gibbs free energy is G = H - T*S

Total enthalpy                    ...    -55.75860182 Eh 
Total entropy correction          ...     -0.02184133 Eh    -13.71 kcal/mol
-----------------------------------------------------------------------
Final Gibbs free energy         ...    -55.78044316 Eh

For completeness - the Gibbs free energy minus the electronic energy
G-E(el)                           ...      0.02102891 Eh     13.20 kcal/mol


Maximum memory used throughout the entire PROP-calculation: 22.9 MB

--------------------------------
SUGGESTED CITATIONS FOR THIS RUN
--------------------------------

Below you find a list of papers that are relevant to this ORCA run
We neither can nor want to force you to cite these papers, but we appreciate if you do
You receive ORCA, which is the product of decades of hard work by many enthusiastic individuals, for free
The only thing we kindly ask in return is that you cite our papers,
We deeply appreciate it, if you show your appreciation for ORCA by not just citing the generic ORCA reference.

Please note that relegating all ORCA citations to the supporting information does *not* help us.
SI sections are not indexed - citations you put there will not count into any citation statistics
But we need these citations in order to attract the funding resources that allow us to do what we are doing

Therefore, if you are a happy ORCA user, please consider citing a few of the papers listed below in the main body of your paper

In addition to the list printed below, the program has created the file Orca-6.bibtex that contains the list in bibtex format
You can import this file easily into all common literature databanks and citation aid programs


List of essential papers. We consider these as the minimum necessary citations

  1. Neese,F.
     Software update: the ORCA program system, version 5.0
     WIRES Comput. Molec. Sci., 2022 12(1)e1606
     doi.org/10.1002/wcms.1606

List of papers to cite with high priority. The work reported in these papers was absolutely
necessary for this run to complete.
Our perspective: the developers of density functionals and basis sets usually get cited in chemistry papers
Good! But without the algorithms to do something with them, the functionals or basis sets would not do anything.
Hence, in our opinion, the algorithm design and method developments papers are equally worthy of getting cited

  1. Bykov,D.; Petrenko,T.; Izsak,R.; Kossmann,S.; Becker,U.; Valeev,E.; Neese,F.
     Efficient implementation of the analytic second derivatives of Hartree-Fock and hybrid DFT energies: a detailed analysis of different approximations
     Molec. Phys., 2015 113 1961-1977
     doi.org/10.1080/00268976.2015.1025114
  2. Neese,F.
     The SHARK Integral Generation and Digestion System
     J. Comp. Chem., 2022  1-16
     doi.org/10.1002/jcc.26942
  3. Grimme,S.; Antony,J.; Ehrlich,S.; Krieg,H.
     A consistent and accurate ab initio parametrization of density functional dispersion correction (DFT-D) for the 94 elements H-Pu
     J. Chem. Phys., 2010 132 154104
     doi.org/10.1063/1.3382344
  4. Grimme,S.; Ehrlich,S.; Goerigk,L.
     Effect of the damping function in dispersion corrected density functional theory
     J. Comput. Chem., 2011 32(7)1456-1465
     doi.org/10.1002/jcc.21759

List of suggested additional citations. These are papers that are important in the 'surrounding' of 
of this run, or papers that preceded the highly important papers. If you like your results we are grateful for a citation.

  1. Neese,F.
     The ORCA program system
     WIRES Comput. Molec. Sci., 2012 2(1)73-78
     doi.org/10.1002/wcms.81
  2. Neese,F.
     Software update: the ORCA program system, version 4.0
     WIRES Comput. Molec. Sci., 2018 8(1)1-6
     doi.org/10.1002/wcms.1327
  3. Neese,F.; Wennmohs,F.; Becker,U.; Riplinger,C.
     The ORCA quantum chemistry program package
     J. Chem. Phys., 2020 152 Art. No. L224108
     doi.org/10.1063/5.0004608

List of optional additional citations

  1. Neese,F.
     Approximate second-order SCF convergence for spin unrestricted wavefunctions
     Chem. Phys. Lett., 2000 325(1-3)93-98
     doi.org/10.1016/s0009-2614(00)00662-x

Timings for individual modules:

Sum of individual times          ...       66.292 sec (=   1.105 min)
Startup calculation              ...       13.166 sec (=   0.219 min)  19.9 %
SCF iterations                   ...       27.969 sec (=   0.466 min)  42.2 %
Property integrals               ...       11.240 sec (=   0.187 min)  17.0 %
SCF Response                     ...        1.921 sec (=   0.032 min)   2.9 %
Property calculations            ...        1.519 sec (=   0.025 min)   2.3 %
SCF Gradient evaluation          ...       10.417 sec (=   0.174 min)  15.7 %
Geometry relaxation              ...        0.061 sec (=   0.001 min)   0.1 %
                             ****ORCA TERMINATED NORMALLY****
TOTAL RUN TIME: 0 days 0 hours 1 minutes 22 seconds 223 msec
