 vasp.6.5.1 10Mar25 (build Aug 01 2025 09:48:10) complex                        
  
 executed on             LinuxIFC date 2025.09.25  17:14:48
 running   20 mpi-ranks, with    1 threads/rank, on    1 nodes
 distrk:  each k-point on   20 cores,    1 groups
 distr:  one band on NCORE=   1 cores,   20 groups


--------------------------------------------------------------------------------------------------------


 INCAR:
   ISTART = 1            (Read existing wavefunction, if there)
   ISPIN = 1            (Non-Spin polarised DFT)
   LREAL = .FALSE.       (Projection operators: automatic)
   LWAVE = .TRUE.        (Write WAVECAR or not)
   LCHARG = .TRUE.        (Write CHGCAR or not)
   ADDGRID = .TRUE.        (Increase grid, helps GGA convergence)
   NSW = 1            (number of ionic steps. Make it odd.)
   ISMEAR = 0            (gaussian smearing method)
   SIGMA = 0.05         (please check the width of the smearing)
   IBRION = 5            (frequence calculation)
   POTIM = 0.02         (displacement step)
   NFREE = 2            (displacement freedom)

 POTCAR:    PAW_PBE C 08Apr2002                   
 POTCAR:    PAW_PBE N 08Apr2002                   
 POTCAR:    PAW_PBE H 15Jun2001                   
 POTCAR:    PAW_PBE C 08Apr2002                   
   SHA256 =  253f7b50bb8d59471dbedb8285d89021f4a42ed1a2c5d38a03a736e69125dd95 C/POTCAR              
   COPYR  = (c) Copyright 08Apr2002 Georg Kresse                                                    
   COPYR  = This file is part of the software VASP. Any use, copying, and all other rights are regul
   COPYR  = If you do not have a valid VASP license, you may not use, copy or distribute this file. 
   VRHFIN =C: s2p2                                                                                  
   LEXCH  = PE                                                                                      
   EATOM  =   147.1560 eV,   10.8157 Ry                                                             
                                                                                                    
   TITEL  = PAW_PBE C 08Apr2002                                                                     
   LULTRA =        F    use ultrasoft PP ?                                                          
   IUNSCR =        1    unscreen: 0-lin 1-nonlin 2-no                                               
   RPACOR =    1.200    partial core radius                                                         
   POMASS =   12.011; ZVAL   =    4.000    mass and valenz                                          
   RCORE  =    1.500    outmost cutoff radius                                                       
   RWIGS  =    1.630; RWIGS  =    0.863    wigner-seitz radius (au A)                               
   ENMAX  =  400.000; ENMIN  =  300.000 eV                                                          
   ICORE  =        2    local potential                                                             
   LCOR   =        T    correct aug charges                                                         
   LPAW   =        T    paw PP                                                                      
   EAUG   =  644.873                                                                                
   DEXC   =    0.000                                                                                
   RMAX   =    1.529    core radius for proj-oper                                                   
   RAUG   =    1.300    factor for augmentation sphere                                              
   RDEP   =    1.501    radius for radial grids                                                     
   RDEPT  =    1.300    core radius for aug-charge                                                  
                                                                                                    
   Atomic configuration                                                                             
    4 entries                                                                                       
     n  l   j            E        occ.                                                              
     1  0  0.50      -273.3789   2.0000                                                             
     2  0  0.50       -13.7508   2.0000                                                             
     2  1  0.50        -5.2854   2.0000                                                             
     3  2  1.50        -5.4423   0.0000                                                             
   Description                                                                                      
     l       E           TYP  RCUT    TYP  RCUT                                                     
     0    -13.7508458     23  1.200                                                                 
     0     -8.2022199     23  1.200                                                                 
     1     -5.2854383     23  1.500                                                                 
     1     34.0145650     23  1.500                                                                 
     2     -5.4423304      7  1.500                                                                 
  local pseudopotential read in
  partial core-charges read in
  partial kinetic energy density read in
  atomic valenz-charges read in
  non local Contribution for L=           0  read in
    real space projection operators read in
  non local Contribution for L=           0  read in
    real space projection operators read in
  non local Contribution for L=           1  read in
    real space projection operators read in
  non local Contribution for L=           1  read in
    real space projection operators read in
    PAW grid and wavefunctions read in
 
   number of l-projection  operators is LMAX  =           4
   number of lm-projection operators is LMMAX =           8
 
 POTCAR:    PAW_PBE N 08Apr2002                   
   SHA256 =  e053789ff3a61a86a1b75d8a110fcc91f86041011e7b0817c7c99e4e8a6349d7 N/POTCAR              
   COPYR  = (c) Copyright 08Apr2002 Georg Kresse                                                    
   COPYR  = This file is part of the software VASP. Any use, copying, and all other rights are regul
   COPYR  = If you do not have a valid VASP license, you may not use, copy or distribute this file. 
   VRHFIN =N: s2p3                                                                                  
   LEXCH  = PE                                                                                      
   EATOM  =   264.5486 eV,   19.4438 Ry                                                             
                                                                                                    
   TITEL  = PAW_PBE N 08Apr2002                                                                     
   LULTRA =        F    use ultrasoft PP ?                                                          
   IUNSCR =        1    unscreen: 0-lin 1-nonlin 2-no                                               
   RPACOR =    1.200    partial core radius                                                         
   POMASS =   14.001; ZVAL   =    5.000    mass and valenz                                          
   RCORE  =    1.500    outmost cutoff radius                                                       
   RWIGS  =    1.400; RWIGS  =    0.741    wigner-seitz radius (au A)                               
   ENMAX  =  400.000; ENMIN  =  300.000 eV                                                          
   ICORE  =        2    local potential                                                             
   LCOR   =        T    correct aug charges                                                         
   LPAW   =        T    paw PP                                                                      
   EAUG   =  627.112                                                                                
   DEXC   =    0.000                                                                                
   RMAX   =    1.529    core radius for proj-oper                                                   
   RAUG   =    1.300    factor for augmentation sphere                                              
   RDEP   =    1.514    radius for radial grids                                                     
   RDEPT  =    1.338    core radius for aug-charge                                                  
                                                                                                    
   Atomic configuration                                                                             
    4 entries                                                                                       
     n  l   j            E        occ.                                                              
     1  0  0.50      -384.7179   2.0000                                                             
     2  0  0.50       -18.5828   2.0000                                                             
     2  1  0.50        -7.0898   3.0000                                                             
     3  2  1.50        -6.8029   0.0000                                                             
   Description                                                                                      
     l       E           TYP  RCUT    TYP  RCUT                                                     
     0    -18.5828119     23  1.200                                                                 
     0    -13.5018863     23  1.200                                                                 
     1     -7.0897853     23  1.500                                                                 
     1      9.5240782     23  1.500                                                                 
     2     -6.8029130      7  1.500                                                                 
  local pseudopotential read in
  partial core-charges read in
  partial kinetic energy density read in
  atomic valenz-charges read in
  non local Contribution for L=           0  read in
    real space projection operators read in
  non local Contribution for L=           0  read in
    real space projection operators read in
  non local Contribution for L=           1  read in
    real space projection operators read in
  non local Contribution for L=           1  read in
    real space projection operators read in
    PAW grid and wavefunctions read in
 
   number of l-projection  operators is LMAX  =           4
   number of lm-projection operators is LMMAX =           8
 
 POTCAR:    PAW_PBE H 15Jun2001                   
   SHA256 =  030f79b5d3ab3cf0e668861823c8fb652ff669f3e15e46930bd03bfd63a607b6 H/POTCAR              
   COPYR  = (c) Copyright 15Jun2001 Georg Kresse                                                    
   COPYR  = This file is part of the software VASP. Any use, copying, and all other rights are regul
   COPYR  = If you do not have a valid VASP license, you may not use, copy or distribute this file. 
   VRHFIN =H: ultrasoft test                                                                        
   LEXCH  = PE                                                                                      
   EATOM  =    12.4884 eV,    0.9179 Ry                                                             
                                                                                                    
   TITEL  = PAW_PBE H 15Jun2001                                                                     
   LULTRA =        F    use ultrasoft PP ?                                                          
   IUNSCR =        0    unscreen: 0-lin 1-nonlin 2-no                                               
   RPACOR =    0.000    partial core radius                                                         
   POMASS =    1.000; ZVAL   =    1.000    mass and valenz                                          
   RCORE  =    1.100    outmost cutoff radius                                                       
   RWIGS  =    0.700; RWIGS  =    0.370    wigner-seitz radius (au A)                               
   ENMAX  =  250.000; ENMIN  =  200.000 eV                                                          
   RCLOC  =    0.701    cutoff for local pot                                                        
   LCOR   =        T    correct aug charges                                                         
   LPAW   =        T    paw PP                                                                      
   EAUG   =  400.000                                                                                
   RMAX   =    1.123    core radius for proj-oper                                                   
   RAUG   =    1.200    factor for augmentation sphere                                              
   RDEP   =    1.112    radius for radial grids                                                     
   RDEPT  =    0.926    core radius for aug-charge                                                  
                                                                                                    
   Atomic configuration                                                                             
    2 entries                                                                                       
     n  l   j            E        occ.                                                              
     1  0  0.50        -6.4927   1.0000                                                             
     2  1  0.50        -3.4015   0.0000                                                             
   Description                                                                                      
     l       E           TYP  RCUT    TYP  RCUT                                                     
     0     -6.4927494     23  1.100                                                                 
     0      6.8029130     23  1.100                                                                 
     1     -4.0817478     23  1.100                                                                 
  local pseudopotential read in
  atomic valenz-charges read in
  non local Contribution for L=           0  read in
    real space projection operators read in
  non local Contribution for L=           0  read in
    real space projection operators read in
  non local Contribution for L=           1  read in
    real space projection operators read in
    PAW grid and wavefunctions read in
 
   number of l-projection  operators is LMAX  =           3
   number of lm-projection operators is LMMAX =           5
 
  PAW_PBE C 08Apr2002                   :
 energy of atom  1       EATOM= -147.1560
 kinetic energy error for atom=    0.0288 (will be added to EATOM!!)
  PAW_PBE N 08Apr2002                   :
 energy of atom  2       EATOM= -264.5486
 kinetic energy error for atom=    0.0736 (will be added to EATOM!!)
  PAW_PBE H 15Jun2001                   :
 energy of atom  3       EATOM=  -12.4884
 kinetic energy error for atom=    0.0098 (will be added to EATOM!!)
 
 
 POSCAR: 3D\Atomistic
  positions in direct lattice
  velocities in cartesian coordinates


 exchange-correlation table for PE
   RHO(1)=    0.500       N(1)  =     2000
   RHO(2)=  100.500       N(2)  =     4000

 VTST: version 5.1, (04/25/25)

 CHAIN: initializing optimizer
 
 OPT: Using VASP Dynamics algorithm
 CHAIN: Read ICHAIN            0
 
 POSCAR: 3D\Atomistic
  positions in direct lattice
  velocities in cartesian coordinates
 


--------------------------------------------------------------------------------------------------------


 ion  position               nearest neighbor table
   1  0.523  0.513  0.443-   3 1.10   4 1.10   2 1.27
   2  0.583  0.489  0.552-   5 1.03   1 1.27
   3  0.577  0.497  0.348-   1 1.10
   4  0.419  0.549  0.434-   1 1.10
   5  0.521  0.508  0.633-   2 1.03
 
  LATTYP: Found a simple cubic cell.
 ALAT       =    10.0000000000
  
  Lattice vectors:
  
 A1 = (  10.0000000000,   0.0000000000,   0.0000000000)
 A2 = (   0.0000000000,  10.0000000000,   0.0000000000)
 A3 = (   0.0000000000,   0.0000000000,  10.0000000000)


Analysis of symmetry for initial positions (statically):
=====================================================================
 Subroutine PRICEL returns:
 Original cell was already a primitive cell.
 

 Routine SETGRP: Setting up the symmetry group for a 
 simple cubic supercell.


 Subroutine GETGRP returns: Found  1 space group operations
 (whereof  1 operations were pure point group operations)
 out of a pool of 48 trial point group operations.


The static configuration has the point symmetry C_1 .


Analysis of symmetry for dynamics (positions and initial velocities):
=====================================================================
 Subroutine PRICEL returns:
 Original cell was already a primitive cell.
 

 Routine SETGRP: Setting up the symmetry group for a 
 simple cubic supercell.


 Subroutine GETGRP returns: Found  1 space group operations
 (whereof  1 operations were pure point group operations)
 out of a pool of 48 trial point group operations.


The dynamic configuration has the point symmetry C_1 .


 Subroutine INISYM returns: Found  1 space group operations
 (whereof  1 operations are pure point group operations),
 and found     1 'primitive' translations


----------------------------------------------------------------------------------------

                                     Primitive cell                                     

  volume of cell :    1000.0000

  direct lattice vectors                    reciprocal lattice vectors
    10.000000000  0.000000000  0.000000000     0.100000000  0.000000000  0.000000000
     0.000000000 10.000000000  0.000000000     0.000000000  0.100000000  0.000000000
     0.000000000  0.000000000 10.000000000     0.000000000  0.000000000  0.100000000

  length of vectors
    10.000000000 10.000000000 10.000000000     0.100000000  0.100000000  0.100000000

  position of ions in fractional coordinates (direct lattice)
     0.523035817  0.513095109  0.442541881
     0.583284471  0.489415317  0.552377838
     0.577317156  0.497221233  0.348201560
     0.418930332  0.548924271  0.433699421
     0.521442223  0.508244070  0.632879300

  ion indices of the primitive-cell ions
   primitive index   ion index
                 1           1
                 2           2
                 3           3
                 4           4
                 5           5

----------------------------------------------------------------------------------------

 
 
 KPOINTS: K-Spacing Value to Generate K-Mesh: 0.04

Automatic generation of k-mesh.
 Grid dimensions read from file:
 generate k-points for:    3    1    3

 Generating k-lattice:

  Cartesian coordinates                     Fractional coordinates (reciprocal lattice)
     0.033333333  0.000000000  0.000000000     0.333333333  0.000000000  0.000000000
     0.000000000  0.100000000  0.000000000     0.000000000  1.000000000  0.000000000
     0.000000000  0.000000000  0.033333333     0.000000000  0.000000000  0.333333333

  Length of vectors
     0.033333333  0.100000000  0.033333333

  Shift w.r.t. Gamma in fractional coordinates (k-lattice)
     0.000000000  0.000000000  0.000000000

 -----------------------------------------------------------------------------
|                                                                             |
|           W    W    AA    RRRRR   N    N  II  N    N   GGGG   !!!           |
|           W    W   A  A   R    R  NN   N  II  NN   N  G    G  !!!           |
|           W    W  A    A  R    R  N N  N  II  N N  N  G       !!!           |
|           W WW W  AAAAAA  RRRRR   N  N N  II  N  N N  G  GGG   !            |
|           WW  WW  A    A  R   R   N   NN  II  N   NN  G    G                |
|           W    W  A    A  R    R  N    N  II  N    N   GGGG   !!!           |
|                                                                             |
|     Your reciprocal lattice and k-lattice belong to different lattice       |
|     classes:                                                                |
|                                                                             |
|        The reciprocal lattice is simple cubic,                              |
|        whereas your k-lattice is simple tetragonal.                         |
|                                                                             |
|     Results are often still useful ...                                      |
|                                                                             |
 -----------------------------------------------------------------------------

 WARNING: IBZKPT: internal override: KBLOWUP is changed to .FALSE.
      ... skipping the blow-up phase ...

 
 Subroutine IBZKPT returns following result:
 ===========================================
 
 Found      5 irreducible k-points:
 
 Following reciprocal coordinates:
            Coordinates               Weight
  0.000000  0.000000  0.000000      1.000000
  0.333333  0.000000  0.000000      2.000000
  0.000000  0.000000  0.333333      2.000000
  0.333333  0.000000  0.333333      2.000000
 -0.333333  0.000000  0.333333      2.000000
 
 Following cartesian coordinates:
            Coordinates               Weight
  0.000000  0.000000  0.000000      1.000000
  0.033333  0.000000  0.000000      2.000000
  0.000000  0.000000  0.033333      2.000000
  0.033333  0.000000  0.033333      2.000000
 -0.033333  0.000000  0.033333      2.000000
 
 WARNING: full set of k-points will be restricted to regular points only.

 
 Subroutine IBZKPT_HF returns following result:
 ==============================================
 
 Found      9 k-points in 1st BZ
 the following      9 k-points will be used (e.g. in the exchange kernel)
 Following reciprocal coordinates:   # in IRBZ
  0.000000  0.000000  0.000000    0.11111111   1 t-inv F
  0.333333  0.000000  0.000000    0.11111111   2 t-inv F
  0.000000  0.000000  0.333333    0.11111111   3 t-inv F
  0.333333  0.000000  0.333333    0.11111111   4 t-inv F
 -0.333333  0.000000  0.333333    0.11111111   5 t-inv F
 -0.333333 -0.000000 -0.000000    0.11111111   2 t-inv T
 -0.000000 -0.000000 -0.333333    0.11111111   3 t-inv T
 -0.333333 -0.000000 -0.333333    0.11111111   4 t-inv T
  0.333333 -0.000000 -0.333333    0.11111111   5 t-inv T


--------------------------------------------------------------------------------------------------------




 Dimension of arrays:
   k-points           NKPTS =      5   k-points in BZ     NKDIM =      5   number of bands    NBANDS=     20
   number of dos      NEDOS =    301   number of ions     NIONS =      5
   non local maximal  LDIM  =      4   non local SUM 2l+1 LMDIM =      8
   total plane-waves  NPLWV = 125000
   max r-space proj   IRMAX =      1   max aug-charges    IRDMAX=  12504
   dimension x,y,z NGX =    50 NGY =   50 NGZ =   50
   dimension x,y,z NGXF=   100 NGYF=  100 NGZF=  100
   support grid    NGXF=   200 NGYF=  200 NGZF=  200
   ions per type =               1   1   3
   NGX,Y,Z   is equivalent  to a cutoff of   8.31,  8.31,  8.31 a.u.
   NGXF,Y,Z  is equivalent  to a cutoff of  16.62, 16.62, 16.62 a.u.

 SYSTEM =  unknown system                          
 POSCAR =  3D\Atomistic                            

 Startparameter for this run:
   NWRITE =      2    write-flag & timer
   PREC   = normal    normal or accurate (medium, high low for compatibility)
   ISTART =      0    job   : 0-new  1-cont  2-samecut
   ICHARG =      2    charge: 1-file 2-atom 10-const
   ISPIN  =      1    spin polarized calculation?
   LNONCOLLINEAR =      F non collinear calculations
   LSORBIT =      F    spin-orbit coupling
   INIWAV =      1    electr: 0-lowe 1-rand  2-diag
   LASPH  =      F    aspherical Exc in radial PAW
 Electronic Relaxation 1
   ENCUT  =  400.0 eV  29.40 Ry    5.42 a.u.  16.31 16.31 16.31*2*pi/ulx,y,z
   ENINI  =  400.0     initial cutoff
   ENAUG  =  644.9 eV  augmentation charge cutoff
   NELM   =     60;   NELMIN=  2; NELMDL=  0     # of ELM steps 
   EDIFF  = 0.1E-05   stopping-criterion for ELM
   LREAL  =      F    real-space projection
   NLSPLINE    = F    spline interpolate recip. space projectors
   LCOMPAT=      F    compatible to vasp.4.4
   GGA_COMPAT  = T    GGA compatible to vasp.4.4-vasp.4.6
   LMAXPAW     = -100 max onsite density
   LMAXMIX     =    2 max onsite mixed and CHGCAR
   VOSKOWN=      0    Vosko Wilk Nusair interpolation
   ROPT   =    0.00000   0.00000   0.00000
 Ionic relaxation
   EDIFFG = 0.1E-04   stopping-criterion for IOM
   NSW    =     97    number of steps for IOM
   NBLOCK =      1;   KBLOCK =     97    inner block; outer block 
   IBRION =      5    ionic relax: 0-MD 1-quasi-New 2-CG
   NFREE  =      2    steps in history (QN), initial steepest desc. (CG)
   ISIF   =      2    stress and relaxation
   IWAVPR =     11    prediction:  0-non 1-charg 2-wave 3-comb
   ISYM   =      2    0-nonsym 1-usesym 2-fastsym
   LCORR  =      T    Harris-Foulkes like correction to forces

   POTIM  = 0.0200    time-step for ionic-motion
   TEIN   =    0.0    initial temperature
   TEBEG  =    0.0;   TEEND  =   0.0 temperature during run
   SMASS  =  -3.00    Nose mass-parameter (am)
   estimated Nose-frequenzy (Omega)   =  0.10E-29 period in steps = 0.31E+48 mass=  -0.229E-26a.u.
   SCALEE = 1.0000    scale energy and forces
   NPACO  =    256;   APACO  = 10.0  distance and # of slots for P.C.
   PSTRESS=    0.0 pullay stress

  Mass of Ions in am
   POMASS =  12.01 14.00  1.00
  Ionic Valenz
   ZVAL   =   4.00  5.00  1.00
  Atomic Wigner-Seitz radii
   RWIGS  =  -1.00 -1.00 -1.00
  virtual crystal weights 
   VCA    =   1.00  1.00  1.00
   NELECT =      12.0000    total number of electrons
   NUPDOWN=      -1.0000    fix difference up-down

 DOS related values:
   EMIN   =  10.00;   EMAX   =-10.00  energy-range for DOS
   EFERMI =   0.00;   METHOD = LEGACY      
   ISMEAR =     0;   SIGMA  =   0.05  broadening in eV -4-tet -1-fermi 0-gaus
   EFERMI_NEDOS =   21; number of points for ismear=-14 and -15

 Electronic relaxation 2 (details)
   IALGO  =     38    algorithm
   LDIAG  =      T    sub-space diagonalisation (order eigenvalues)
   LSUBROT=      F    optimize rotation matrix (better conditioning)
   LROBUST=      F    robust break criterion during scf (extrapolated energy error)
   ISEARCH=      0    line search for conjugate gradient (0, 1=use gradient)
   TURBO    =      0    0=normal 1=particle mesh
   IRESTART =      0    0=no restart 2=restart with 2 vectors
   NREBOOT  =      0    no. of reboots
   NMIN     =      0    reboot dimension
   EREF     =   0.00    reference energy to select bands
   IMIX   =      4    mixing-type and parameters
     AMIX     =   0.40;   BMIX     =  1.00
     AMIX_MAG =   1.60;   BMIX_MAG =  1.00
     AMIN     =   0.10
     WC   =   100.;   INIMIX=   1;  MIXPRE=   1;  MAXMIX= -45

 Intra band minimization:
   WEIMIN = 0.0010     energy-eigenvalue tresh-hold
   EBREAK =  0.12E-07  absolut break condition
   DEPER  =   0.30     relativ break condition  

   TIME   =   0.40     timestep for ELM

  volume/ion in A,a.u.               =     200.00      1349.67
  Fermi-wavevector in a.u.,A,eV,Ry     =   0.374802  0.708273  1.911299  0.140477
  Thomas-Fermi vector in A             =   1.305434
 
 Write flags
   LWAVE        =      T    write WAVECAR
   LDOWNSAMPLE  =      F    k-point downsampling of WAVECAR
   LCHARG       =      T    write CHGCAR
   LVTOT        =      F    write LOCPOT, total local potential
   LVHAR        =      F    write LOCPOT, Hartree potential only
   WRT_POTENTIAL= false  ! write potential to hdf5 file
   LELF         =      F    write electronic localiz. function (ELF)
   LORBIT       =      0    0 simple, 1 ext, 2 COOP (PROOUT), +10 PAW based schemes


 Python interface
   PLUGINS active      =      T    the code was linked to PLUGINS
     -mode             = serial    run plugins only on root process
     -force_and_stress =      F    update the forces and the stress externally
     -local_potential  =      F    update the potential externally
     -machine_learning =      F    use machine_learning to change VASP flow
     -occupancies      =      F    update quantities related to the occupancies
     -structure        =      F    overwrite the structure externally
 
 Dipole corrections
   LMONO      =      F    monopole corrections only (constant potential shift)
   LDIPOL     =      F    correct potential (dipole corrections)
   IDIPOL     =      0    1-x, 2-y, 3-z, 4-all directions 
   EPSILON    =  1.0000000 bulk dielectric constant
   LVACPOTAV  =      F  vacuum potentials using an averaging scheme for the charge density
   VACPOTFLAT =  0.1000000 required flatness to determine vacuum potential
 
Coulomb truncation method
  LTRUNCATE          =      F  Coulomb kernel truncation to be used

 
 Exchange correlation treatment:
   GGA     = PE    functional components
   XC_C    = 1    coefficients multiplying the functional components
   LIBXC   =     F    Libxc                    
   VOSKOWN =     0    Vosko Wilk Nusair interpolation
   LHFCALC =     F    Hartree Fock is set to
   LHFONE  =     F    Hartree Fock one center treatment
   AEXX    =    0.0000 exact exchange contribution

 Parameters of functionals:
   PE:
     No parameter
 
 Van der Waals corrections
   IVDW    =     0    specifies the selected vdW correction

 Linear response parameters
   LEPSILON=     F    determine dielectric tensor
   LRPA    =     F    only Hartree local field effects (RPA)
   LNABLA  =     F    use nabla operator in PAW spheres
   LVEL    =     F    velocity operator in full k-point grid
   CSHIFT  =0.1000    complex shift for real part using Kramers Kronig
   OMEGAMAX=  -1.0    maximum frequency
   DEG_THRESHOLD= 0.2000000E-02 threshold for treating states as degnerate
   RTIME   =   -0.100 relaxation time in fs
  (WPLASMAI=    0.000 imaginary part of plasma frequency in eV, 0.658/RTIME)
   DFIELD  = 0.0000000 0.0000000 0.0000000 field for delta impulse in time
 
  Optional k-point grid parameters
   LKPOINTS_OPT  =     F    use optional k-point grid
   KPOINTS_OPT_MODE=     1    mode for optional k-point grid
 
 Orbital magnetization related:
   ORBITALMAG=     F  switch on orbital magnetization
   LCHIMAG   =     F  perturbation theory with respect to B field
   DQ        =  0.001000  dq finite difference perturbation B field
   LLRAUG    =     F  two centre corrections for induced B field
   LBONE     =     F  B-component reconstruction in AE one-centre
   LVGVCALC  =     T  calculate vGv susceptibility
   LVGVAPPL  =     F  apply vGv susceptibility instead of pGv for G=0

 Random number generation:
   RANDOM_GENERATOR = DEFAULT
   PCG_SEED         = not used


--------------------------------------------------------------------------------------------------------


 finite differences
 charge density and potential will be updated during run
 non-spin polarized calculation
 Variant of blocked Davidson
 Davidson routine will perform the subspace rotation
 perform sub-space diagonalisation
    after iterative eigenvector-optimisation
 modified Broyden-mixing scheme, WC =      100.0
 initial mixing is a Kerker type mixing with AMIX =  0.4000 and BMIX =      1.0000
 Hartree-type preconditioning will be used
 using additional bands           14
 reciprocal scheme for non local part
 use partial core corrections
 calculate Harris-corrections to forces 
   (improved forces if not selfconsistent)
 use gradient corrections 
 use of overlap-Matrix (Vanderbilt PP)
 Gauss-broadening in eV      SIGMA  =   0.05


--------------------------------------------------------------------------------------------------------


  energy-cutoff  :      400.00
  volume of cell :     1000.00
      direct lattice vectors                 reciprocal lattice vectors
    10.000000000  0.000000000  0.000000000     0.100000000  0.000000000  0.000000000
     0.000000000 10.000000000  0.000000000     0.000000000  0.100000000  0.000000000
     0.000000000  0.000000000 10.000000000     0.000000000  0.000000000  0.100000000

  length of vectors
    10.000000000 10.000000000 10.000000000     0.100000000  0.100000000  0.100000000


 
 k-points in units of 2pi/SCALE and weight: K-Spacing Value to Generate K-Mesh: 0.04
   0.00000000  0.00000000  0.00000000       0.111
   0.03333333  0.00000000  0.00000000       0.222
   0.00000000  0.00000000  0.03333333       0.222
   0.03333333  0.00000000  0.03333333       0.222
  -0.03333333  0.00000000  0.03333333       0.222
 
 k-points in reciprocal lattice and weights: K-Spacing Value to Generate K-Mesh: 0.04
   0.00000000  0.00000000  0.00000000       0.111
   0.33333333  0.00000000  0.00000000       0.222
   0.00000000  0.00000000  0.33333333       0.222
   0.33333333  0.00000000  0.33333333       0.222
  -0.33333333  0.00000000  0.33333333       0.222
 
 position of ions in fractional coordinates (direct lattice) 
   0.52303582  0.51309511  0.44254188
   0.58328447  0.48941532  0.55237784
   0.57731716  0.49722123  0.34820156
   0.41893033  0.54892427  0.43369942
   0.52144222  0.50824407  0.63287930
 
 position of ions in cartesian coordinates  (Angst):
   5.23035817  5.13095109  4.42541881
   5.83284471  4.89415317  5.52377838
   5.77317156  4.97221233  3.48201560
   4.18930332  5.48924271  4.33699421
   5.21442223  5.08244070  6.32879300
 


--------------------------------------------------------------------------------------------------------


 k-point     1 :   0.0000 0.0000 0.0000  plane waves:   18037
 k-point     2 :   0.3333 0.0000 0.0000  plane waves:   18184
 k-point     3 :   0.0000 0.0000 0.3333  plane waves:   18184
 k-point     4 :   0.3333 0.0000 0.3333  plane waves:   18211
 k-point     5 :  -0.3333 0.0000 0.3333  plane waves:   18211

 maximum and minimum number of plane-waves per node :     18211    18037

 maximum number of plane-waves:     18211
 maximum index in each direction: 
   IXMAX=   16   IYMAX=   16   IZMAX=   16
   IXMIN=  -16   IYMIN=  -16   IZMIN=  -16


 serial   3D FFT for wavefunctions
 parallel 3D FFT for charge:
    minimum data exchange during FFTs selected (reduces bandwidth)


 total amount of memory used by VASP MPI-rank0    66604. kBytes
=======================================================================

   base                                    :      30000. kBytes
   nonl-proj                               :      18948. kBytes
   fftplans                                :       7893. kBytes
   grid                                    :       8288. kBytes
   one-center                              :         15. kBytes
   wavefun                                 :       1460. kBytes
 
     INWAV:  cpu time      0.0001: real time      0.0062
 Broyden mixing: mesh for mixing (old mesh)
   NGX = 33   NGY = 33   NGZ = 33
  (NGX  =100   NGY  =100   NGZ  =100)
  gives a total of  35937 points

 initial charge density was supplied:
 charge density of overlapping atoms calculated
 number of electron      12.0000000 magnetization 
 keeping initial charge density in first step


--------------------------------------------------------------------------------------------------------


 Maximum index for augmentation-charges          594 (set IRDMAX)


--------------------------------------------------------------------------------------------------------


 First call to EWALD:  gamma=   0.177
 Maximum number of real-space cells   3x   3x   3
 Maximum number of reciprocal cells   3x   3x   3

    FEWALD:  cpu time      0.0011: real time      0.0011


--------------------------------------- Ionic step        1  -------------------------------------------




--------------------------------------- Iteration      1(   1)  ---------------------------------------


    POTLOK:  cpu time      0.0319: real time      0.0327
    SETDIJ:  cpu time      0.0193: real time      0.0195
     EDDAV:  cpu time      0.2316: real time      0.2422
       DOS:  cpu time      0.0007: real time      0.0007
    --------------------------------------------
      LOOP:  cpu time      0.2839: real time      0.2954

 eigenvalue-minimisations  :   260
 total energy-change (2. order) : 0.5016330E+02  (-0.3110173E+03)
 number of electron      12.0000000 magnetization 
 augmentation part       12.0000000 magnetization 

 Free energy of the ion-electron system (eV)
  ---------------------------------------------------
  alpha Z        PSCENC =         0.59273253
  Ewald energy   TEWEN  =       228.26622565
  -Hartree energ DENC   =      -545.95136293
  -exchange      EXHF   =         0.00000000
  -V(xc)+E(xc)   XCENC  =        38.93357311
  PAW double counting   =       319.85686030     -321.64388355
  entropy T*S    EENTRO =        -0.00943537
  eigenvalues    EBANDS =      -118.91953400
  atomic energy  EATOM  =       449.03812428
  Solvation  Ediel_sol  =         0.00000000
  ---------------------------------------------------
  free energy    TOTEN  =        50.16330003 eV

  energy without entropy =       50.17273539  energy(sigma->0) =       50.16801771


--------------------------------------------------------------------------------------------------------




--------------------------------------- Iteration      1(   2)  ---------------------------------------


     EDDAV:  cpu time      0.2703: real time      0.2710
       DOS:  cpu time      0.0002: real time      0.0002
    --------------------------------------------
      LOOP:  cpu time      0.2704: real time      0.2711

 eigenvalue-minimisations  :   400
 total energy-change (2. order) :-0.7792021E+02  (-0.7342560E+02)
 number of electron      12.0000000 magnetization 
 augmentation part       12.0000000 magnetization 

 Free energy of the ion-electron system (eV)
  ---------------------------------------------------
  alpha Z        PSCENC =         0.59273253
  Ewald energy   TEWEN  =       228.26622565
  -Hartree energ DENC   =      -545.95136293
  -exchange      EXHF   =         0.00000000
  -V(xc)+E(xc)   XCENC  =        38.93357311
  PAW double counting   =       319.85686030     -321.64388355
  entropy T*S    EENTRO =        -0.00000000
  eigenvalues    EBANDS =      -196.84917705
  atomic energy  EATOM  =       449.03812428
  Solvation  Ediel_sol  =         0.00000000
  ---------------------------------------------------
  free energy    TOTEN  =       -27.75690766 eV

  energy without entropy =      -27.75690766  energy(sigma->0) =      -27.75690766


--------------------------------------------------------------------------------------------------------




--------------------------------------- Iteration      1(   3)  ---------------------------------------


     EDDAV:  cpu time      0.1474: real time      0.1480
       DOS:  cpu time      0.0002: real time      0.0002
    --------------------------------------------
      LOOP:  cpu time      0.1475: real time      0.1481

 eigenvalue-minimisations  :   200
 total energy-change (2. order) :-0.2624093E+01  (-0.2624093E+01)
 number of electron      12.0000000 magnetization 
 augmentation part       12.0000000 magnetization 

 Free energy of the ion-electron system (eV)
  ---------------------------------------------------
  alpha Z        PSCENC =         0.59273253
  Ewald energy   TEWEN  =       228.26622565
  -Hartree energ DENC   =      -545.95136293
  -exchange      EXHF   =         0.00000000
  -V(xc)+E(xc)   XCENC  =        38.93357311
  PAW double counting   =       319.85686030     -321.64388355
  entropy T*S    EENTRO =        -0.00000000
  eigenvalues    EBANDS =      -199.47326964
  atomic energy  EATOM  =       449.03812428
  Solvation  Ediel_sol  =         0.00000000
  ---------------------------------------------------
  free energy    TOTEN  =       -30.38100024 eV

  energy without entropy =      -30.38100024  energy(sigma->0) =      -30.38100024


--------------------------------------------------------------------------------------------------------




--------------------------------------- Iteration      1(   4)  ---------------------------------------


     EDDAV:  cpu time      0.1930: real time      0.1939
       DOS:  cpu time      0.0002: real time      0.0002
    --------------------------------------------
      LOOP:  cpu time      0.1932: real time      0.1941

 eigenvalue-minimisations  :   280
 total energy-change (2. order) :-0.3013523E-01  (-0.3013523E-01)
 number of electron      12.0000000 magnetization 
 augmentation part       12.0000000 magnetization 

 Free energy of the ion-electron system (eV)
  ---------------------------------------------------
  alpha Z        PSCENC =         0.59273253
  Ewald energy   TEWEN  =       228.26622565
  -Hartree energ DENC   =      -545.95136293
  -exchange      EXHF   =         0.00000000
  -V(xc)+E(xc)   XCENC  =        38.93357311
  PAW double counting   =       319.85686030     -321.64388355
  entropy T*S    EENTRO =        -0.00000000
  eigenvalues    EBANDS =      -199.50340486
  atomic energy  EATOM  =       449.03812428
  Solvation  Ediel_sol  =         0.00000000
  ---------------------------------------------------
  free energy    TOTEN  =       -30.41113547 eV

  energy without entropy =      -30.41113547  energy(sigma->0) =      -30.41113547


--------------------------------------------------------------------------------------------------------




--------------------------------------- Iteration      1(   5)  ---------------------------------------


     EDDAV:  cpu time      0.1922: real time      0.1927
       DOS:  cpu time      0.0002: real time      0.0002
    CHARGE:  cpu time      0.0240: real time      0.0240
    MIXING:  cpu time      0.0028: real time      0.0028
    --------------------------------------------
      LOOP:  cpu time      0.2190: real time      0.2196

 eigenvalue-minimisations  :   280
 total energy-change (2. order) :-0.2448173E-03  (-0.2448173E-03)
 number of electron      11.9999999 magnetization 
 augmentation part        0.4426859 magnetization 

 Broyden mixing:
  rms(total) = 0.95892E+00    rms(broyden)= 0.95811E+00
  rms(prec ) = 0.12638E+01
  weight for this iteration     100.00

 Free energy of the ion-electron system (eV)
  ---------------------------------------------------
  alpha Z        PSCENC =         0.59273253
  Ewald energy   TEWEN  =       228.26622565
  -Hartree energ DENC   =      -545.95136293
  -exchange      EXHF   =         0.00000000
  -V(xc)+E(xc)   XCENC  =        38.93357311
  PAW double counting   =       319.85686030     -321.64388355
  entropy T*S    EENTRO =        -0.00000000
  eigenvalues    EBANDS =      -199.50364968
  atomic energy  EATOM  =       449.03812428
  Solvation  Ediel_sol  =         0.00000000
  ---------------------------------------------------
  free energy    TOTEN  =       -30.41138029 eV

  energy without entropy =      -30.41138029  energy(sigma->0) =      -30.41138029


--------------------------------------------------------------------------------------------------------




--------------------------------------- Iteration      1(   6)  ---------------------------------------


    POTLOK:  cpu time      0.0269: real time      0.0273
    SETDIJ:  cpu time      0.0126: real time      0.0126
     EDDAV:  cpu time      0.2000: real time      0.2006
       DOS:  cpu time      0.0002: real time      0.0001
    CHARGE:  cpu time      0.0205: real time      0.0205
    MIXING:  cpu time      0.0021: real time      0.0041
    --------------------------------------------
      LOOP:  cpu time      0.2623: real time      0.2653

 eigenvalue-minimisations  :   300
 total energy-change (2. order) : 0.2428117E+01  (-0.7520971E+00)
 number of electron      11.9999999 magnetization 
 augmentation part        0.3748275 magnetization 

 Broyden mixing:
  rms(total) = 0.51240E+00    rms(broyden)= 0.51221E+00
  rms(prec ) = 0.62264E+00
  weight for this iteration     100.00

 eigenvalues of (default mixing * dielectric matrix)
  average eigenvalue GAMMA=   1.2568
  1.2568

 Free energy of the ion-electron system (eV)
  ---------------------------------------------------
  alpha Z        PSCENC =         0.59273253
  Ewald energy   TEWEN  =       228.26622565
  -Hartree energ DENC   =      -572.32615861
  -exchange      EXHF   =         0.00000000
  -V(xc)+E(xc)   XCENC  =        40.39576712
  PAW double counting   =       527.55450811     -529.60410477
  entropy T*S    EENTRO =        -0.00000000
  eigenvalues    EBANDS =      -171.90035720
  atomic energy  EATOM  =       449.03812428
  Solvation  Ediel_sol  =         0.00000000
  ---------------------------------------------------
  free energy    TOTEN  =       -27.98326288 eV

  energy without entropy =      -27.98326288  energy(sigma->0) =      -27.98326288


--------------------------------------------------------------------------------------------------------




--------------------------------------- Iteration      1(   7)  ---------------------------------------


    POTLOK:  cpu time      0.0221: real time      0.0224
    SETDIJ:  cpu time      0.0127: real time      0.0127
     EDDAV:  cpu time      0.2466: real time      0.2473
       DOS:  cpu time      0.0002: real time      0.0002
    CHARGE:  cpu time      0.0204: real time      0.0204
    MIXING:  cpu time      0.0016: real time      0.0030
    --------------------------------------------
      LOOP:  cpu time      0.3036: real time      0.3060

 eigenvalue-minimisations  :   360
 total energy-change (2. order) : 0.4585243E+00  (-0.1224108E+00)
 number of electron      11.9999999 magnetization 
 augmentation part        0.3707446 magnetization 

 Broyden mixing:
  rms(total) = 0.26007E+00    rms(broyden)= 0.26002E+00
  rms(prec ) = 0.31223E+00
  weight for this iteration     100.00

 eigenvalues of (default mixing * dielectric matrix)
  average eigenvalue GAMMA=   1.4657
  0.9528  1.9786

 Free energy of the ion-electron system (eV)
  ---------------------------------------------------
  alpha Z        PSCENC =         0.59273253
  Ewald energy   TEWEN  =       228.26622565
  -Hartree energ DENC   =      -584.09964046
  -exchange      EXHF   =         0.00000000
  -V(xc)+E(xc)   XCENC  =        41.11626360
  PAW double counting   =       725.61331878     -727.75037581
  entropy T*S    EENTRO =        -0.00000000
  eigenvalues    EBANDS =      -160.30138718
  atomic energy  EATOM  =       449.03812428
  Solvation  Ediel_sol  =         0.00000000
  ---------------------------------------------------
  free energy    TOTEN  =       -27.52473861 eV

  energy without entropy =      -27.52473861  energy(sigma->0) =      -27.52473861


--------------------------------------------------------------------------------------------------------




--------------------------------------- Iteration      1(   8)  ---------------------------------------


    POTLOK:  cpu time      0.0250: real time      0.0253
    SETDIJ:  cpu time      0.0126: real time      0.0126
     EDDAV:  cpu time      0.2403: real time      0.2407
       DOS:  cpu time      0.0002: real time      0.0002
    CHARGE:  cpu time      0.0202: real time      0.0202
    MIXING:  cpu time      0.0016: real time      0.0022
    --------------------------------------------
      LOOP:  cpu time      0.2999: real time      0.3012

 eigenvalue-minimisations  :   360
 total energy-change (2. order) : 0.1220539E+00  (-0.2343104E-01)
 number of electron      11.9999999 magnetization 
 augmentation part        0.3599980 magnetization 

 Broyden mixing:
  rms(total) = 0.96092E-01    rms(broyden)= 0.96063E-01
  rms(prec ) = 0.12307E+00
  weight for this iteration     100.00

 eigenvalues of (default mixing * dielectric matrix)
  average eigenvalue GAMMA=   1.4888
  2.2587  1.4273  0.7805

 Free energy of the ion-electron system (eV)
  ---------------------------------------------------
  alpha Z        PSCENC =         0.59273253
  Ewald energy   TEWEN  =       228.26622565
  -Hartree energ DENC   =      -591.25245587
  -exchange      EXHF   =         0.00000000
  -V(xc)+E(xc)   XCENC  =        41.60132141
  PAW double counting   =       878.06046814     -880.23205586
  entropy T*S    EENTRO =        -0.00000000
  eigenvalues    EBANDS =      -153.47704505
  atomic energy  EATOM  =       449.03812428
  Solvation  Ediel_sol  =         0.00000000
  ---------------------------------------------------
  free energy    TOTEN  =       -27.40268476 eV

  energy without entropy =      -27.40268476  energy(sigma->0) =      -27.40268476


--------------------------------------------------------------------------------------------------------




--------------------------------------- Iteration      1(   9)  ---------------------------------------


    POTLOK:  cpu time      0.0218: real time      0.0223
    SETDIJ:  cpu time      0.0127: real time      0.0127
     EDDAV:  cpu time      0.2330: real time      0.2330
       DOS:  cpu time      0.0002: real time      0.0002
    CHARGE:  cpu time      0.0205: real time      0.0205
    MIXING:  cpu time      0.0013: real time      0.0013
    --------------------------------------------
      LOOP:  cpu time      0.2895: real time      0.2900

 eigenvalue-minimisations  :   360
 total energy-change (2. order) : 0.2139156E-01  (-0.2526682E-02)
 number of electron      11.9999999 magnetization 
 augmentation part        0.3614506 magnetization 

 Broyden mixing:
  rms(total) = 0.19616E-01    rms(broyden)= 0.19607E-01
  rms(prec ) = 0.46691E-01
  weight for this iteration     100.00

 eigenvalues of (default mixing * dielectric matrix)
  average eigenvalue GAMMA=   1.4527
  2.2603  1.6098  0.8113  1.1293

 Free energy of the ion-electron system (eV)
  ---------------------------------------------------
  alpha Z        PSCENC =         0.59273253
  Ewald energy   TEWEN  =       228.26622565
  -Hartree energ DENC   =      -593.32976392
  -exchange      EXHF   =         0.00000000
  -V(xc)+E(xc)   XCENC  =        41.74476315
  PAW double counting   =       942.27117776     -944.43195261
  entropy T*S    EENTRO =        -0.00000000
  eigenvalues    EBANDS =      -151.53260005
  atomic energy  EATOM  =       449.03812428
  Solvation  Ediel_sol  =         0.00000000
  ---------------------------------------------------
  free energy    TOTEN  =       -27.38129320 eV

  energy without entropy =      -27.38129320  energy(sigma->0) =      -27.38129320


--------------------------------------------------------------------------------------------------------




--------------------------------------- Iteration      1(  10)  ---------------------------------------


    POTLOK:  cpu time      0.0220: real time      0.0223
    SETDIJ:  cpu time      0.0126: real time      0.0126
     EDDAV:  cpu time      0.1965: real time      0.1965
       DOS:  cpu time      0.0002: real time      0.0002
    CHARGE:  cpu time      0.0201: real time      0.0201
    MIXING:  cpu time      0.0015: real time      0.0015
    --------------------------------------------
      LOOP:  cpu time      0.2529: real time      0.2533

 eigenvalue-minimisations  :   300
 total energy-change (2. order) : 0.7631859E-03  (-0.4500434E-03)
 number of electron      11.9999999 magnetization 
 augmentation part        0.3612447 magnetization 

 Broyden mixing:
  rms(total) = 0.11075E-01    rms(broyden)= 0.11072E-01
  rms(prec ) = 0.29362E-01
  weight for this iteration     100.00

 eigenvalues of (default mixing * dielectric matrix)
  average eigenvalue GAMMA=   1.6115
  2.5029  2.5029  1.3195  0.8081  0.9242

 Free energy of the ion-electron system (eV)
  ---------------------------------------------------
  alpha Z        PSCENC =         0.59273253
  Ewald energy   TEWEN  =       228.26622565
  -Hartree energ DENC   =      -594.71644830
  -exchange      EXHF   =         0.00000000
  -V(xc)+E(xc)   XCENC  =        41.79059222
  PAW double counting   =       944.99283334     -947.15004452
  entropy T*S    EENTRO =        -0.00000000
  eigenvalues    EBANDS =      -150.19454522
  atomic energy  EATOM  =       449.03812428
  Solvation  Ediel_sol  =         0.00000000
  ---------------------------------------------------
  free energy    TOTEN  =       -27.38053002 eV

  energy without entropy =      -27.38053002  energy(sigma->0) =      -27.38053002


--------------------------------------------------------------------------------------------------------




--------------------------------------- Iteration      1(  11)  ---------------------------------------


    POTLOK:  cpu time      0.0220: real time      0.0223
    SETDIJ:  cpu time      0.0127: real time      0.0127
     EDDAV:  cpu time      0.2258: real time      0.2258
       DOS:  cpu time      0.0002: real time      0.0002
    CHARGE:  cpu time      0.0209: real time      0.0209
    MIXING:  cpu time      0.0015: real time      0.0018
    --------------------------------------------
      LOOP:  cpu time      0.2832: real time      0.2838

 eigenvalue-minimisations  :   340
 total energy-change (2. order) :-0.3874183E-02  (-0.3319739E-03)
 number of electron      11.9999999 magnetization 
 augmentation part        0.3607173 magnetization 

 Broyden mixing:
  rms(total) = 0.66241E-02    rms(broyden)= 0.66224E-02
  rms(prec ) = 0.15711E-01
  weight for this iteration     100.00

 eigenvalues of (default mixing * dielectric matrix)
  average eigenvalue GAMMA=   1.7402
  3.1904  2.4160  0.8064  0.9983  1.5930  1.4370

 Free energy of the ion-electron system (eV)
  ---------------------------------------------------
  alpha Z        PSCENC =         0.59273253
  Ewald energy   TEWEN  =       228.26622565
  -Hartree energ DENC   =      -595.91774176
  -exchange      EXHF   =         0.00000000
  -V(xc)+E(xc)   XCENC  =        41.81820068
  PAW double counting   =       938.42255747     -940.57534026
  entropy T*S    EENTRO =        -0.00000000
  eigenvalues    EBANDS =      -149.02916279
  atomic energy  EATOM  =       449.03812428
  Solvation  Ediel_sol  =         0.00000000
  ---------------------------------------------------
  free energy    TOTEN  =       -27.38440420 eV

  energy without entropy =      -27.38440420  energy(sigma->0) =      -27.38440420


--------------------------------------------------------------------------------------------------------




--------------------------------------- Iteration      1(  12)  ---------------------------------------


    POTLOK:  cpu time      0.0225: real time      0.0228
    SETDIJ:  cpu time      0.0127: real time      0.0127
     EDDAV:  cpu time      0.1872: real time      0.1874
       DOS:  cpu time      0.0002: real time      0.0002
    CHARGE:  cpu time      0.0201: real time      0.0201
    MIXING:  cpu time      0.0015: real time      0.0015
    --------------------------------------------
      LOOP:  cpu time      0.2441: real time      0.2446

 eigenvalue-minimisations  :   280
 total energy-change (2. order) :-0.6310741E-02  (-0.1608364E-03)
 number of electron      11.9999999 magnetization 
 augmentation part        0.3605673 magnetization 

 Broyden mixing:
  rms(total) = 0.32304E-02    rms(broyden)= 0.32294E-02
  rms(prec ) = 0.85062E-02
  weight for this iteration     100.00

 eigenvalues of (default mixing * dielectric matrix)
  average eigenvalue GAMMA=   1.9695
  4.6396  2.5850  2.2870  0.8056  1.0021  1.2337  1.2337

 Free energy of the ion-electron system (eV)
  ---------------------------------------------------
  alpha Z        PSCENC =         0.59273253
  Ewald energy   TEWEN  =       228.26622565
  -Hartree energ DENC   =      -596.40322307
  -exchange      EXHF   =         0.00000000
  -V(xc)+E(xc)   XCENC  =        41.82652363
  PAW double counting   =       936.39687469     -938.54911769
  entropy T*S    EENTRO =        -0.00000000
  eigenvalues    EBANDS =      -148.55885497
  atomic energy  EATOM  =       449.03812428
  Solvation  Ediel_sol  =         0.00000000
  ---------------------------------------------------
  free energy    TOTEN  =       -27.39071494 eV

  energy without entropy =      -27.39071494  energy(sigma->0) =      -27.39071494


--------------------------------------------------------------------------------------------------------




--------------------------------------- Iteration      1(  13)  ---------------------------------------


    POTLOK:  cpu time      0.0222: real time      0.0226
    SETDIJ:  cpu time      0.0128: real time      0.0128
     EDDAV:  cpu time      0.2103: real time      0.2104
       DOS:  cpu time      0.0002: real time      0.0002
    CHARGE:  cpu time      0.0217: real time      0.0217
    MIXING:  cpu time      0.0020: real time      0.0020
    --------------------------------------------
      LOOP:  cpu time      0.2693: real time      0.2698

 eigenvalue-minimisations  :   300
 total energy-change (2. order) :-0.4475840E-02  (-0.7596658E-04)
 number of electron      11.9999999 magnetization 
 augmentation part        0.3604988 magnetization 

 Broyden mixing:
  rms(total) = 0.26499E-02    rms(broyden)= 0.26496E-02
  rms(prec ) = 0.48641E-02
  weight for this iteration     100.00

 eigenvalues of (default mixing * dielectric matrix)
  average eigenvalue GAMMA=   2.1298
  5.1926  3.0935  2.2907  2.2907  0.8061  1.2892  0.9596  1.1155

 Free energy of the ion-electron system (eV)
  ---------------------------------------------------
  alpha Z        PSCENC =         0.59273253
  Ewald energy   TEWEN  =       228.26622565
  -Hartree energ DENC   =      -596.54939866
  -exchange      EXHF   =         0.00000000
  -V(xc)+E(xc)   XCENC  =        41.82164287
  PAW double counting   =       934.15514900     -936.30819922
  entropy T*S    EENTRO =        -0.00000000
  eigenvalues    EBANDS =      -148.41146724
  atomic energy  EATOM  =       449.03812428
  Solvation  Ediel_sol  =         0.00000000
  ---------------------------------------------------
  free energy    TOTEN  =       -27.39519078 eV

  energy without entropy =      -27.39519078  energy(sigma->0) =      -27.39519078


--------------------------------------------------------------------------------------------------------




--------------------------------------- Iteration      1(  14)  ---------------------------------------


    POTLOK:  cpu time      0.0240: real time      0.0244
    SETDIJ:  cpu time      0.0129: real time      0.0129
     EDDAV:  cpu time      0.2258: real time      0.2258
       DOS:  cpu time      0.0002: real time      0.0002
    CHARGE:  cpu time      0.0232: real time      0.0232
    MIXING:  cpu time      0.0018: real time      0.0018
    --------------------------------------------
      LOOP:  cpu time      0.2879: real time      0.2883

 eigenvalue-minimisations  :   320
 total energy-change (2. order) :-0.2851903E-02  (-0.4744565E-04)
 number of electron      11.9999999 magnetization 
 augmentation part        0.3604986 magnetization 

 Broyden mixing:
  rms(total) = 0.10436E-02    rms(broyden)= 0.10432E-02
  rms(prec ) = 0.19515E-02
  weight for this iteration     100.00

 eigenvalues of (default mixing * dielectric matrix)
  average eigenvalue GAMMA=   2.1662
  6.2514  3.3566  2.4085  2.1628  0.8058  0.9444  1.2917  1.0739  1.2008

 Free energy of the ion-electron system (eV)
  ---------------------------------------------------
  alpha Z        PSCENC =         0.59273253
  Ewald energy   TEWEN  =       228.26622565
  -Hartree energ DENC   =      -596.50873396
  -exchange      EXHF   =         0.00000000
  -V(xc)+E(xc)   XCENC  =        41.81418716
  PAW double counting   =       936.04314050     -938.19615298
  entropy T*S    EENTRO =        -0.00000000
  eigenvalues    EBANDS =      -148.44756587
  atomic energy  EATOM  =       449.03812428
  Solvation  Ediel_sol  =         0.00000000
  ---------------------------------------------------
  free energy    TOTEN  =       -27.39804269 eV

  energy without entropy =      -27.39804269  energy(sigma->0) =      -27.39804269


--------------------------------------------------------------------------------------------------------




--------------------------------------- Iteration      1(  15)  ---------------------------------------


    POTLOK:  cpu time      0.0275: real time      0.0278
    SETDIJ:  cpu time      0.0140: real time      0.0140
     EDDAV:  cpu time      0.2139: real time      0.2139
       DOS:  cpu time      0.0002: real time      0.0002
    CHARGE:  cpu time      0.0207: real time      0.0207
    MIXING:  cpu time      0.0016: real time      0.0016
    --------------------------------------------
      LOOP:  cpu time      0.2779: real time      0.2782

 eigenvalue-minimisations  :   320
 total energy-change (2. order) :-0.3954338E-03  (-0.1529201E-05)
 number of electron      11.9999999 magnetization 
 augmentation part        0.3604947 magnetization 

 Broyden mixing:
  rms(total) = 0.69478E-03    rms(broyden)= 0.69453E-03
  rms(prec ) = 0.13031E-02
  weight for this iteration     100.00

 eigenvalues of (default mixing * dielectric matrix)
  average eigenvalue GAMMA=   2.3602
  7.1864  4.1176  2.5199  2.5199  2.0205  0.8058  1.2971  0.9816  1.0170  1.1360

 Free energy of the ion-electron system (eV)
  ---------------------------------------------------
  alpha Z        PSCENC =         0.59273253
  Ewald energy   TEWEN  =       228.26622565
  -Hartree energ DENC   =      -596.52087438
  -exchange      EXHF   =         0.00000000
  -V(xc)+E(xc)   XCENC  =        41.81440800
  PAW double counting   =       936.13278443     -938.28579530
  entropy T*S    EENTRO =        -0.00000000
  eigenvalues    EBANDS =      -148.43604334
  atomic energy  EATOM  =       449.03812428
  Solvation  Ediel_sol  =         0.00000000
  ---------------------------------------------------
  free energy    TOTEN  =       -27.39843812 eV

  energy without entropy =      -27.39843812  energy(sigma->0) =      -27.39843812


--------------------------------------------------------------------------------------------------------




--------------------------------------- Iteration      1(  16)  ---------------------------------------


    POTLOK:  cpu time      0.0222: real time      0.0225
    SETDIJ:  cpu time      0.0130: real time      0.0130
     EDDAV:  cpu time      0.2199: real time      0.2201
       DOS:  cpu time      0.0002: real time      0.0002
    CHARGE:  cpu time      0.0211: real time      0.0211
    MIXING:  cpu time      0.0021: real time      0.0021
    --------------------------------------------
      LOOP:  cpu time      0.2785: real time      0.2790

 eigenvalue-minimisations  :   320
 total energy-change (2. order) :-0.4667610E-03  (-0.4134325E-05)
 number of electron      11.9999999 magnetization 
 augmentation part        0.3604879 magnetization 

 Broyden mixing:
  rms(total) = 0.24685E-03    rms(broyden)= 0.24615E-03
  rms(prec ) = 0.43264E-03
  weight for this iteration     100.00

 eigenvalues of (default mixing * dielectric matrix)
  average eigenvalue GAMMA=   2.3950
  7.8138  4.4498  2.7737  2.3010  2.1107  1.7202  0.8058  1.2704  1.1489  0.9609
  0.9901

 Free energy of the ion-electron system (eV)
  ---------------------------------------------------
  alpha Z        PSCENC =         0.59273253
  Ewald energy   TEWEN  =       228.26622565
  -Hartree energ DENC   =      -596.50516791
  -exchange      EXHF   =         0.00000000
  -V(xc)+E(xc)   XCENC  =        41.81343619
  PAW double counting   =       935.83334731     -937.98624363
  entropy T*S    EENTRO =        -0.00000000
  eigenvalues    EBANDS =      -148.45135930
  atomic energy  EATOM  =       449.03812428
  Solvation  Ediel_sol  =         0.00000000
  ---------------------------------------------------
  free energy    TOTEN  =       -27.39890488 eV

  energy without entropy =      -27.39890488  energy(sigma->0) =      -27.39890488


--------------------------------------------------------------------------------------------------------




--------------------------------------- Iteration      1(  17)  ---------------------------------------


    POTLOK:  cpu time      0.0333: real time      0.0337
    SETDIJ:  cpu time      0.0151: real time      0.0151
     EDDAV:  cpu time      0.2431: real time      0.2431
       DOS:  cpu time      0.0002: real time      0.0002
    CHARGE:  cpu time      0.0220: real time      0.0220
    MIXING:  cpu time      0.0026: real time      0.0026
    --------------------------------------------
      LOOP:  cpu time      0.3163: real time      0.3167

 eigenvalue-minimisations  :   340
 total energy-change (2. order) :-0.7340385E-04  (-0.2862958E-06)
 number of electron      11.9999999 magnetization 
 augmentation part        0.3604887 magnetization 

 Broyden mixing:
  rms(total) = 0.10716E-03    rms(broyden)= 0.10556E-03
  rms(prec ) = 0.19023E-03
  weight for this iteration     100.00

 eigenvalues of (default mixing * dielectric matrix)
  average eigenvalue GAMMA=   2.4558
  8.2404  5.0314  3.2053  2.4533  2.3577  1.8981  0.8058  1.2956  1.1936  0.9368
  1.0258  1.0258

 Free energy of the ion-electron system (eV)
  ---------------------------------------------------
  alpha Z        PSCENC =         0.59273253
  Ewald energy   TEWEN  =       228.26622565
  -Hartree energ DENC   =      -596.50417265
  -exchange      EXHF   =         0.00000000
  -V(xc)+E(xc)   XCENC  =        41.81347120
  PAW double counting   =       935.82719294     -937.98007746
  entropy T*S    EENTRO =        -0.00000000
  eigenvalues    EBANDS =      -148.45247478
  atomic energy  EATOM  =       449.03812428
  Solvation  Ediel_sol  =         0.00000000
  ---------------------------------------------------
  free energy    TOTEN  =       -27.39897829 eV

  energy without entropy =      -27.39897829  energy(sigma->0) =      -27.39897829


--------------------------------------------------------------------------------------------------------




--------------------------------------- Iteration      1(  18)  ---------------------------------------


    POTLOK:  cpu time      0.0286: real time      0.0288
    SETDIJ:  cpu time      0.0139: real time      0.0139
     EDDAV:  cpu time      0.2345: real time      0.2345
       DOS:  cpu time      0.0002: real time      0.0002
    CHARGE:  cpu time      0.0218: real time      0.0218
    MIXING:  cpu time      0.0020: real time      0.0020
    --------------------------------------------
      LOOP:  cpu time      0.3010: real time      0.3013

 eigenvalue-minimisations  :   320
 total energy-change (2. order) :-0.2469879E-04  (-0.1269124E-06)
 number of electron      11.9999999 magnetization 
 augmentation part        0.3604871 magnetization 

 Broyden mixing:
  rms(total) = 0.81917E-04    rms(broyden)= 0.79862E-04
  rms(prec ) = 0.10705E-03
  weight for this iteration     100.00

 eigenvalues of (default mixing * dielectric matrix)
  average eigenvalue GAMMA=   2.4805
  8.4525  5.2156  3.4721  2.4885  2.2411  2.2411  1.9325  1.2951  0.8058  1.1276
  0.9766  0.9766  1.0216

 Free energy of the ion-electron system (eV)
  ---------------------------------------------------
  alpha Z        PSCENC =         0.59273253
  Ewald energy   TEWEN  =       228.26622565
  -Hartree energ DENC   =      -596.50670729
  -exchange      EXHF   =         0.00000000
  -V(xc)+E(xc)   XCENC  =        41.81355999
  PAW double counting   =       935.74873476     -937.90163329
  entropy T*S    EENTRO =        -0.00000000
  eigenvalues    EBANDS =      -148.45003962
  atomic energy  EATOM  =       449.03812428
  Solvation  Ediel_sol  =         0.00000000
  ---------------------------------------------------
  free energy    TOTEN  =       -27.39900298 eV

  energy without entropy =      -27.39900298  energy(sigma->0) =      -27.39900298


--------------------------------------------------------------------------------------------------------




--------------------------------------- Iteration      1(  19)  ---------------------------------------


    POTLOK:  cpu time      0.0224: real time      0.0227
    SETDIJ:  cpu time      0.0130: real time      0.0130
     EDDAV:  cpu time      0.1849: real time      0.1851
       DOS:  cpu time      0.0002: real time      0.0002
    CHARGE:  cpu time      0.0196: real time      0.0197
    MIXING:  cpu time      0.0020: real time      0.0020
    --------------------------------------------
      LOOP:  cpu time      0.2422: real time      0.2427

 eigenvalue-minimisations  :   280
 total energy-change (2. order) :-0.6645032E-05  (-0.2679593E-07)
 number of electron      11.9999999 magnetization 
 augmentation part        0.3604886 magnetization 

 Broyden mixing:
  rms(total) = 0.27839E-04    rms(broyden)= 0.21050E-04
  rms(prec ) = 0.36504E-04
  weight for this iteration     100.00
  WARNING: grid for Broyden might be to small

 eigenvalues of (default mixing * dielectric matrix)
  average eigenvalue GAMMA=   2.4529
  8.5241  5.4130  3.8065  2.6172  2.5565  2.1483  1.9168  0.8058  1.2862  1.2328
  1.0578  1.0578  0.9592  0.9592

 Free energy of the ion-electron system (eV)
  ---------------------------------------------------
  alpha Z        PSCENC =         0.59273253
  Ewald energy   TEWEN  =       228.26622565
  -Hartree energ DENC   =      -596.50657754
  -exchange      EXHF   =         0.00000000
  -V(xc)+E(xc)   XCENC  =        41.81350959
  PAW double counting   =       935.77430681     -937.92721726
  entropy T*S    EENTRO =        -0.00000000
  eigenvalues    EBANDS =      -148.45011369
  atomic energy  EATOM  =       449.03812428
  Solvation  Ediel_sol  =         0.00000000
  ---------------------------------------------------
  free energy    TOTEN  =       -27.39900963 eV

  energy without entropy =      -27.39900963  energy(sigma->0) =      -27.39900963


--------------------------------------------------------------------------------------------------------




--------------------------------------- Iteration      1(  20)  ---------------------------------------


    POTLOK:  cpu time      0.0220: real time      0.0223
    SETDIJ:  cpu time      0.0125: real time      0.0125
     EDDAV:  cpu time      0.2113: real time      0.2114
       DOS:  cpu time      0.0002: real time      0.0002
    --------------------------------------------
      LOOP:  cpu time      0.2462: real time      0.2466

 eigenvalue-minimisations  :   320
 total energy-change (2. order) :-0.9915674E-06  (-0.3198978E-08)
 number of electron      11.9999999 magnetization 
 augmentation part        0.3604886 magnetization 

 Free energy of the ion-electron system (eV)
  ---------------------------------------------------
  alpha Z        PSCENC =         0.59273253
  Ewald energy   TEWEN  =       228.26622565
  -Hartree energ DENC   =      -596.50718876
  -exchange      EXHF   =         0.00000000
  -V(xc)+E(xc)   XCENC  =        41.81354381
  PAW double counting   =       935.78573442     -937.93864501
  entropy T*S    EENTRO =        -0.00000000
  eigenvalues    EBANDS =      -148.44953754
  atomic energy  EATOM  =       449.03812428
  Solvation  Ediel_sol  =         0.00000000
  ---------------------------------------------------
  free energy    TOTEN  =       -27.39901062 eV

  energy without entropy =      -27.39901062  energy(sigma->0) =      -27.39901062


--------------------------------------------------------------------------------------------------------




 average (electrostatic) potential at core
  the test charge radii are     0.6991  0.7089  0.5201
  (the norm of the test charge is              1.0000)
       1 -59.7625       2 -73.1924       3 -42.1984       4 -42.3219       5 -43.2692
 
 
 
 E-fermi :  -5.8444     XC(G=0):  -0.8267     alpha+bet : -0.2699

 val. band max:       -6.1320163050   @ k =   0.0000   0.0000   0.0000
 cond. band min:      -1.6694472413   @ k =  -0.3333   0.0000   0.3333
 fundamental gap:      4.4625690637
 Fermi energy:        -5.8444267837

 k-point     1 :       0.0000    0.0000    0.0000
  band No.  band energies     occupation 
      1     -22.4065      2.00000
      2     -15.1588      2.00000
      3     -12.1420      2.00000
      4     -10.2295      2.00000
      5      -8.1527      2.00000
      6      -6.1320      2.00000
      7      -1.6669      0.00000
      8      -0.5192      0.00000
      9       0.4777      0.00000
     10       0.7835      0.00000
     11       1.1046      0.00000
     12       1.1281      0.00000
     13       1.1844      0.00000
     14       1.2912      0.00000
     15       2.1025      0.00000
     16       2.1860      0.00000
     17       2.2798      0.00000
     18       2.4495      0.00000
     19       2.6300      0.00000
     20       2.7011      0.00000

 k-point     2 :       0.3333    0.0000    0.0000
  band No.  band energies     occupation 
      1     -22.4067      2.00000
      2     -15.1593      2.00000
      3     -12.1427      2.00000
      4     -10.2302      2.00000
      5      -8.1533      2.00000
      6      -6.1327      2.00000
      7      -1.6680      0.00000
      8      -0.4165      0.00000
      9       0.3047      0.00000
     10       0.5705      0.00000
     11       1.0955      0.00000
     12       1.2272      0.00000
     13       1.2979      0.00000
     14       1.6599      0.00000
     15       1.7996      0.00000
     16       1.9033      0.00000
     17       2.0198      0.00000
     18       2.2783      0.00000
     19       2.5308      0.00000
     20       2.6293      0.00000

 k-point     3 :       0.0000    0.0000    0.3333
  band No.  band energies     occupation 
      1     -22.4067      2.00000
      2     -15.1593      2.00000
      3     -12.1426      2.00000
      4     -10.2301      2.00000
      5      -8.1535      2.00000
      6      -6.1330      2.00000
      7      -1.6691      0.00000
      8      -0.4024      0.00000
      9       0.0499      0.00000
     10       0.9048      0.00000
     11       1.2007      0.00000
     12       1.2484      0.00000
     13       1.3741      0.00000
     14       1.5184      0.00000
     15       1.7714      0.00000
     16       1.8626      0.00000
     17       2.0244      0.00000
     18       2.1816      0.00000
     19       2.4301      0.00000
     20       2.7679      0.00000

 k-point     4 :       0.3333    0.0000    0.3333
  band No.  band energies     occupation 
      1     -22.4067      2.00000
      2     -15.1593      2.00000
      3     -12.1427      2.00000
      4     -10.2304      2.00000
      5      -8.1535      2.00000
      6      -6.1329      2.00000
      7      -1.6693      0.00000
      8      -0.3098      0.00000
      9       0.1210      0.00000
     10       0.5058      0.00000
     11       0.9859      0.00000
     12       1.2661      0.00000
     13       1.3764      0.00000
     14       1.7460      0.00000
     15       1.8724      0.00000
     16       1.9664      0.00000
     17       2.0478      0.00000
     18       2.2008      0.00000
     19       2.4315      0.00000
     20       2.5585      0.00000

 k-point     5 :      -0.3333    0.0000    0.3333
  band No.  band energies     occupation 
      1     -22.4067      2.00000
      2     -15.1592      2.00000
      3     -12.1427      2.00000
      4     -10.2303      2.00000
      5      -8.1535      2.00000
      6      -6.1329      2.00000
      7      -1.6694      0.00000
      8      -0.3075      0.00000
      9       0.1387      0.00000
     10       0.4628      0.00000
     11       0.9561      0.00000
     12       1.2937      0.00000
     13       1.4500      0.00000
     14       1.7121      0.00000
     15       1.8855      0.00000
     16       1.9544      0.00000
     17       2.0758      0.00000
     18       2.1994      0.00000
     19       2.3870      0.00000
     20       2.5500      0.00000


--------------------------------------------------------------------------------------------------------


 soft charge-density along one line, spin component           1
         0         1         2         3         4         5         6         7         8         9
 total charge-density along one line
 
 pseudopotential strength for first ion, spin component:           1
 10.311  13.714  -0.001   0.003   0.001   0.002  -0.010  -0.005
 13.714  18.239  -0.001   0.003   0.002   0.003  -0.013  -0.007
 -0.001  -0.001  -4.430   0.002   0.000   8.671  -0.003   0.001
  0.003   0.003   0.002  -4.436  -0.005  -0.003   8.676   0.009
  0.001   0.002   0.000  -0.005  -4.431   0.001   0.009   8.669
  0.002   0.003   8.671  -0.003   0.001 -19.115   0.005  -0.004
 -0.010  -0.013  -0.003   8.676   0.009   0.005 -19.112  -0.015
 -0.005  -0.007   0.001   0.009   8.669  -0.004  -0.015 -19.103
 total augmentation occupancy for first ion, spin component:           1
  7.903  -3.466  -0.121   0.540   0.306  -0.025   0.112   0.063
 -3.466   1.597   0.081  -0.360  -0.205   0.015  -0.070  -0.039
 -0.121   0.081   1.129  -0.056  -0.212   0.075  -0.011  -0.027
  0.540  -0.360  -0.056   1.891   0.095  -0.011   0.179   0.022
  0.306  -0.205  -0.212   0.095   1.668  -0.027   0.022   0.144
 -0.025   0.015   0.075  -0.011  -0.027   0.005  -0.002  -0.003
  0.112  -0.070  -0.011   0.179   0.022  -0.002   0.019   0.004
  0.063  -0.039  -0.027   0.022   0.144  -0.003   0.004   0.013


------------------------ aborting loop because EDIFF is reached ----------------------------------------


    CHARGE:  cpu time      0.0214: real time      0.0214
    FORLOC:  cpu time      0.0024: real time      0.0024
    FORNL :  cpu time      0.0838: real time      0.0838
    STRESS:  cpu time      0.6260: real time      0.6261
    FORCOR:  cpu time      0.0253: real time      0.0254
    FORHAR:  cpu time      0.0075: real time      0.0075
    MIXING:  cpu time      0.0032: real time      0.0032
    OFIELD:  cpu time      0.0000: real time      0.0000

  FORCE on cell =-STRESS in cart. coord.  units (eV):
  Direction    XX          YY          ZZ          XY          YZ          ZX
  --------------------------------------------------------------------------------------
  Alpha Z     0.59273     0.59273     0.59273
  Ewald      64.73608   -79.21283   242.74287   -55.96184   -27.68515    53.76924
  Hartree   192.99033   131.23413   272.28192   -23.40356   -14.98324    32.37975
  E(xc)     -45.15448   -45.91135   -44.73022    -0.29449    -0.05154     0.04447
  Local    -381.90776  -182.43544  -621.38196    76.96794    42.19711   -86.83125
  n-local   -25.82679   -21.24573   -24.34429     1.77779     0.14796    -0.11900
  augment     1.20061     0.86377     0.76097    -0.13202    -0.01617     0.04471
  Kinetic   192.53672   195.29689   173.37029     1.04586     0.37377     0.75400
  Fock        0.00000     0.00000     0.00000     0.00000     0.00000     0.00000
  -------------------------------------------------------------------------------------
  Total      -0.83257    -0.81784    -0.70769    -0.00031    -0.01726     0.04191
  in kB      -1.33393    -1.31032    -1.13385    -0.00050    -0.02766     0.06715
  external pressure =       -1.26 kB  Pullay stress =        0.00 kB


 VOLUME and BASIS-vectors are now :
 -----------------------------------------------------------------------------
  energy-cutoff  :      400.00
  volume of cell :     1000.00
      direct lattice vectors                 reciprocal lattice vectors
    10.000000000  0.000000000  0.000000000     0.100000000  0.000000000  0.000000000
     0.000000000 10.000000000  0.000000000     0.000000000  0.100000000  0.000000000
     0.000000000  0.000000000 10.000000000     0.000000000  0.000000000  0.100000000

  length of vectors
[...]
    10.000000000 10.000000000 10.000000000     0.100000000  0.100000000  0.100000000


 FORCES acting on ions
    electron-ion (+dipol)            ewald-force                    non-local-force                 convergence-correction
 -----------------------------------------------------------------------------------------------
   0.604E+02 -.240E+02 0.120E+03   -.620E+02 0.247E+02 -.123E+03   0.171E+01 -.668E+00 0.301E+01   -.397E-04 0.135E-04 0.203E-04
   -.105E+03 0.392E+02 -.116E+03   0.138E+03 -.505E+02 0.123E+03   -.323E+02 0.112E+02 -.791E+01   0.145E-04 -.497E-05 -.165E-04
   -.237E+02 0.653E+01 0.556E+02   0.266E+02 -.736E+01 -.604E+02   -.287E+01 0.843E+00 0.486E+01   -.501E-05 0.182E-05 0.101E-05
   0.557E+02 -.194E+02 0.126E+02   -.609E+02 0.212E+02 -.130E+02   0.523E+01 -.180E+01 0.454E+00   0.685E-05 -.187E-05 0.507E-05
   0.368E+02 -.106E+02 -.667E+02   -.414E+02 0.120E+02 0.730E+02   0.423E+01 -.127E+01 -.580E+01   -.425E-05 0.121E-05 0.768E-05
 -----------------------------------------------------------------------------------------------
   0.240E+02 -.834E+01 0.539E+01   0.000E+00 -.711E-14 -.142E-13   -.240E+02 0.833E+01 -.539E+01   -.277E-04 0.966E-05 0.176E-04
 
 
 POSITION                                       TOTAL-FORCE (eV/Angst)
 -----------------------------------------------------------------------------------
      5.23036      5.13095      4.42542         0.051778     -0.014926     -0.093086
      5.83284      4.89415      5.52378         0.303215     -0.091313     -0.462772
      5.77317      4.97221      3.48202        -0.008305      0.003966     -0.004902
      4.18930      5.48924      4.33699        -0.007294      0.000152      0.006691
      5.21442      5.08244      6.30879        -0.339395      0.102121      0.554069
 -----------------------------------------------------------------------------------
    total drift:                                0.001788     -0.000847     -0.000517


--------------------------------------------------------------------------------------------------------



  FREE ENERGIE OF THE ION-ELECTRON SYSTEM (eV)
  ---------------------------------------------------
  free  energy   TOTEN  =       -27.39346927 eV

  energy  without entropy=      -27.39346927  energy(sigma->0) =      -27.39346927
 d Force =-0.1067041E-02[-0.222E-01, 0.200E-01]  d Energy =-0.5395565E-03-0.527E-03
 d Force =-0.2862729E+01[-0.292E+01,-0.280E+01]  d Ewald  =-0.2862548E+01-0.182E-03
 


--------------------------------------------------------------------------------------------------------


    POTLOK:  cpu time      0.0372: real time      0.0372


--------------------------------------------------------------------------------------------------------


 stress matrix after NEB project (eV)
     -0.66640     -0.04962     -0.25348
     -0.04962     -0.80653      0.06875
     -0.25348      0.06875     -0.19810
  FORCES: max atom, RMS     0.657731    0.389569
  FORCE total and by dimension    0.871103    0.554069
  Stress total and by dimension    1.129913    0.806530
 Finite differences progress:
  Degree of freedom:  15/ 15
  Displacement:        2/  2
  Total:              30/ 30
 
 SECOND DERIVATIVES (NOT SYMMETRIZED)
 ------------------------------------
               1X          1Y          1Z          2X          2Y          2Z          3X          3Y          3Z          4X          4Y          4Z          5X          5Y          5Z 
  1X   -57.030818   15.478597   -9.022257   19.589790   -5.870240   22.345795   12.248794   -2.526984  -10.539674   25.151560   -7.047407   -0.070276    0.040674   -0.033965   -2.713589
  1Y    15.437720  -17.946284    4.939507   -5.711429    6.458346   -8.864313   -2.515176    4.765550    3.118480   -7.017938    6.953288   -0.003386   -0.193177   -0.230899    0.809713
  1Z    -9.052135    4.961457  -78.546669   16.894362   -7.013214   48.123952  -10.941435    3.257108   20.907559    0.141415   -0.078355    5.622461    2.957792   -1.126996    3.892697
  2X    19.600926   -5.715635   16.827613  -35.465261   10.342683   -6.160077   -1.305777    0.745007   -0.658794    1.133082   -1.484815    3.301928   16.037030   -3.887239  -13.310671
  2Y    -5.867371    6.446936   -6.979263   10.331478   -9.307655    4.056464    0.684644    0.573374    0.150549   -1.421127   -2.428992   -1.225982   -3.727624    4.716337    3.998233
  2Z    22.418312   -8.899913   48.137889   -6.203185    4.074155  -74.637079    1.517810   -0.591966    3.452842    1.053289   -0.458989    0.575811  -18.786226    5.876713   22.470537
  3X    12.255153   -2.517767  -10.910026   -1.310486    0.685278    1.518003  -11.620168    2.849923   10.930874    0.957922   -0.525208   -1.981662   -0.282421   -0.492226    0.442810
  3Y    -2.524599    4.764709    3.244275    0.744811    0.581788   -0.592433    2.847272   -3.269533   -3.106167   -0.585667   -0.560545    0.664412   -0.481816   -1.516419   -0.210086
  3Z   -10.568896    3.130864   20.913538   -0.659297    0.150413    3.442726   10.959297   -3.118527  -24.440931    0.177506   -0.073281   -0.291582    0.091390   -0.089469    0.376248
  4X    25.157110   -7.051583    0.149386    1.127817   -1.421484    1.053383    0.957849   -0.585756    0.177247  -26.974357    8.547018   -1.420208   -0.268419    0.511805    0.040191
  4Y    -7.011452    6.952352   -0.077491   -1.484354   -2.420988   -0.459789   -0.524829   -0.561044   -0.073032    8.513130   -5.026950    0.578441    0.507505    1.056631    0.031871
  4Z    -0.080433   -0.002525    5.624138    3.301905   -1.226813    0.564307   -1.981171    0.664612   -0.293135   -1.411704    0.578074   -5.533240    0.171404   -0.013347   -0.362069
  5X     0.044520   -0.193356    2.958616   16.033545   -3.734720  -18.761333   -0.282278   -0.481925    0.091252   -0.269111    0.507442    0.171467  -15.526676    3.902559   15.539998
  5Y    -0.033216   -0.233362   -1.126069   -3.880441    4.724046    5.857442   -0.492226   -1.516521   -0.089259    0.511588    1.056961   -0.013301    3.894295   -4.031124   -4.628812
  5Z    -2.715913    0.810247    3.893649  -13.332652    4.015025   22.463522    0.442881   -0.209938    0.374874    0.040212    0.031763   -0.362396   15.565473   -4.647098  -26.369650
 
 
 Eigenvectors and eigenvalues of the dynamical matrix
 ----------------------------------------------------
 
 
   1 f  =  100.256550 THz   629.930480 2PiTHz 3344.198529 cm-1   414.627587 meV
             X         Y         Z           dx          dy          dz
      5.230358  5.130951  4.425419     0.035147   -0.012096    0.003020  
      5.832845  4.894153  5.523778     0.134388   -0.039783   -0.214599  
      5.773172  4.972212  3.482016    -0.019636    0.006132    0.020700  
      4.189303  5.489243  4.336994    -0.045941    0.015549    0.004550  
      5.214422  5.082441  6.328793    -0.559068    0.169099    0.767162  
 
   2 f  =   91.231003 THz   573.221300 2PiTHz 3043.138712 cm-1   377.300944 meV
             X         Y         Z           dx          dy          dz
      5.230358  5.130951  4.425419     0.223330   -0.070345   -0.209294  
      5.832845  4.894153  5.523778    -0.007269    0.002143    0.012195  
      5.773172  4.972212  3.482016    -0.433174    0.126774    0.748814  
      4.189303  5.489243  4.336994    -0.345185    0.118746   -0.033304  
      5.214422  5.082441  6.328793     0.031524   -0.009732   -0.035789  
 
   3 f  =   88.359406 THz   555.178522 2PiTHz 2947.352533 cm-1   365.424977 meV
             X         Y         Z           dx          dy          dz
      5.230358  5.130951  4.425419    -0.184503    0.066341   -0.119970  
      5.832845  4.894153  5.523778     0.007871   -0.002695    0.000793  
      5.773172  4.972212  3.482016    -0.213936    0.063748    0.329614  
      4.189303  5.489243  4.336994     0.838081   -0.287306    0.044755  
      5.214422  5.082441  6.328793    -0.014151    0.003708    0.038411  
 
   4 f  =   49.898966 THz   313.524447 2PiTHz 1664.450331 cm-1   206.365447 meV
             X         Y         Z           dx          dy          dz
      5.230358  5.130951  4.425419    -0.308622    0.123836   -0.650538  
      5.832845  4.894153  5.523778     0.252154   -0.100328    0.505010  
      5.773172  4.972212  3.482016     0.215293   -0.073966    0.006657  
      4.189303  5.489243  4.336994    -0.121516    0.035223    0.224440  
      5.214422  5.082441  6.328793     0.032573   -0.014949    0.134179  
 
   5 f  =   43.346603 THz   272.354740 2PiTHz 1445.887045 cm-1   179.267065 meV
             X         Y         Z           dx          dy          dz
      5.230358  5.130951  4.425419    -0.006405    0.004356   -0.084023  
      5.832845  4.894153  5.523778     0.134353   -0.054879    0.319347  
      5.773172  4.972212  3.482016    -0.540938    0.196454   -0.389394  
      4.189303  5.489243  4.336994     0.017405    0.011154   -0.612156  
      5.214422  5.082441  6.328793     0.043126   -0.017196    0.098399  
 
   6 f  =   39.587438 THz   248.735212 2PiTHz 1320.494810 cm-1   163.720417 meV
             X         Y         Z           dx          dy          dz
      5.230358  5.130951  4.425419     0.323478   -0.105857   -0.175618  
      5.832845  4.894153  5.523778    -0.385441    0.131962    0.006734  
      5.773172  4.972212  3.482016    -0.196110    0.073589   -0.239348  
      4.189303  5.489243  4.336994     0.055032   -0.028862    0.384918  
      5.214422  5.082441  6.328793     0.461858   -0.171814    0.437347  
 
   7 f  =   33.870828 THz   212.816690 2PiTHz 1129.809215 cm-1   140.078427 meV
             X         Y         Z           dx          dy          dz
      5.230358  5.130951  4.425419    -0.002711   -0.013487   -0.001254  
      5.832845  4.894153  5.523778    -0.081449   -0.236219   -0.006075  
      5.773172  4.972212  3.482016     0.160223    0.475362    0.011700  
      4.189303  5.489243  4.336994    -0.094325   -0.277232   -0.003988  
      5.214422  5.082441  6.328793     0.248059    0.733406    0.019329  
 
   8 f  =   31.562625 THz   198.313820 2PiTHz 1052.815836 cm-1   130.532469 meV
             X         Y         Z           dx          dy          dz
      5.230358  5.130951  4.425419    -0.160980   -0.479186   -0.014407  
      5.832845  4.894153  5.523778     0.055031    0.158172    0.005844  
      5.773172  4.972212  3.482016     0.170866    0.515579    0.010998  
      4.189303  5.489243  4.336994     0.208658    0.610651    0.024269  
      5.214422  5.082441  6.328793    -0.027076   -0.056862   -0.007194  
 
   9 f  =   31.008800 THz   194.834037 2PiTHz 1034.342234 cm-1   128.242035 meV
             X         Y         Z           dx          dy          dz
      5.230358  5.130951  4.425419    -0.205285    0.060710    0.078060  
      5.832845  4.894153  5.523778    -0.035798    0.016325   -0.111731  
      5.773172  4.972212  3.482016     0.372332   -0.124314    0.286301  
      4.189303  5.489243  4.336994    -0.017481    0.027895   -0.525108  
      5.214422  5.082441  6.328793     0.490908   -0.175273    0.386601  
 
  10 f  =    0.268642 THz     1.687929 2PiTHz    8.960943 cm-1     1.111015 meV
             X         Y         Z           dx          dy          dz
      5.230358  5.130951  4.425419    -0.034251   -0.717714    0.212572  
      5.832845  4.894153  5.523778    -0.037681   -0.457905    0.298151  
      5.773172  4.972212  3.482016    -0.008544   -0.276139    0.073721  
      4.189303  5.489243  4.336994    -0.010976   -0.217105    0.033576  
      5.214422  5.082441  6.328793    -0.011438   -0.063626    0.064905  
 
  11 f  =    0.203163 THz     1.276509 2PiTHz    6.776778 cm-1     0.840213 meV
             X         Y         Z           dx          dy          dz
      5.230358  5.130951  4.425419    -0.208088    0.258622    0.480681  
      5.832845  4.894153  5.523778    -0.395774    0.218454    0.599604  
      5.773172  4.972212  3.482016    -0.032316    0.054954    0.157962  
      4.189303  5.489243  4.336994    -0.045597    0.107520    0.101715  
      5.214422  5.082441  6.328793    -0.127946    0.080069    0.138173  
 
  12 f  =    0.024990 THz     0.157019 2PiTHz    0.833588 cm-1     0.103352 meV
             X         Y         Z           dx          dy          dz
      5.230358  5.130951  4.425419     0.571508    0.083170    0.280292  
      5.832845  4.894153  5.523778     0.617902    0.093983    0.302866  
      5.773172  4.972212  3.482016     0.160337    0.010541    0.080521  
      4.189303  5.489243  4.336994     0.168843    0.035536    0.081194  
      5.214422  5.082441  6.328793     0.169651    0.038444    0.081293  
 
  13 f/i=    0.823605 THz     5.174865 2PiTHz   27.472519 cm-1     3.406157 meV
             X         Y         Z           dx          dy          dz
      5.230358  5.130951  4.425419    -0.037342   -0.286185   -0.132075  
      5.832845  4.894153  5.523778     0.010882    0.563514    0.017151  
      5.773172  4.972212  3.482016    -0.096839   -0.499758   -0.017459  
      4.189303  5.489243  4.336994     0.057723    0.102625   -0.095317  
      5.214422  5.082441  6.328793     0.087450    0.539263   -0.021376  
 
  14 f/i=    1.156604 THz     7.267158 2PiTHz   38.580160 cm-1     4.783328 meV
             X         Y         Z           dx          dy          dz
      5.230358  5.130951  4.425419     0.451515    0.135392   -0.238106  
      5.832845  4.894153  5.523778    -0.407843   -0.354600    0.125988  
      5.773172  4.972212  3.482016     0.215742   -0.196242    0.020073  
      4.189303  5.489243  4.336994     0.261726    0.378812   -0.242227  
      5.214422  5.082441  6.328793    -0.165173    0.158244   -0.068585  
 
  15 f/i=    1.442737 THz     9.064983 2PiTHz   48.124522 cm-1     5.966678 meV
             X         Y         Z           dx          dy          dz
      5.230358  5.130951  4.425419     0.265521   -0.203243   -0.213184  
      5.832845  4.894153  5.523778    -0.185389    0.421080    0.166932  
      5.773172  4.972212  3.482016     0.335463    0.235476    0.037948  
      4.189303  5.489243  4.336994    -0.054575   -0.486206   -0.247849  
      5.214422  5.082441  6.328793    -0.294187   -0.204050   -0.069197  
 
 Finite differences POTIM=  2.000000000000000E-002
  LATTYP: Found a simple cubic cell.
 ALAT       =    10.0000000000
  
  Lattice vectors:
  
 A1 = (  10.0000000000,   0.0000000000,   0.0000000000)
 A2 = (   0.0000000000,  10.0000000000,   0.0000000000)
 A3 = (   0.0000000000,   0.0000000000,  10.0000000000)


Analysis of symmetry for initial positions (statically):
=====================================================================
 Subroutine PRICEL returns:
 Original cell was already a primitive cell.
 

 Routine SETGRP: Setting up the symmetry group for a 
 simple cubic supercell.


 Subroutine GETGRP returns: Found  1 space group operations
 (whereof  1 operations were pure point group operations)
 out of a pool of 48 trial point group operations.


The static configuration has the point symmetry C_1 .


Analysis of symmetry for dynamics (positions and initial velocities):
=====================================================================
 Subroutine PRICEL returns:
 Original cell was already a primitive cell.
 

 Routine SETGRP: Setting up the symmetry group for a 
 simple cubic supercell.


 Subroutine GETGRP returns: Found  1 space group operations
 (whereof  1 operations were pure point group operations)
 out of a pool of 48 trial point group operations.


The dynamic configuration has the point symmetry C_1 .


 Subroutine INISYM returns: Found  1 space group operations
 (whereof  1 operations are pure point group operations),
 and found     1 'primitive' translations

 
 KPOINTS: K-Spacing Value to Generate K-Mesh: 0.04

Automatic generation of k-mesh.
 Grid dimensions read from file:
 generate k-points for:    3    1    3

 Generating k-lattice:

  Cartesian coordinates                     Fractional coordinates (reciprocal lattice)
     0.033333333  0.000000000  0.000000000     0.333333333  0.000000000  0.000000000
     0.000000000  0.100000000  0.000000000     0.000000000  1.000000000  0.000000000
     0.000000000  0.000000000  0.033333333     0.000000000  0.000000000  0.333333333

  Length of vectors
     0.033333333  0.100000000  0.033333333

  Shift w.r.t. Gamma in fractional coordinates (k-lattice)
     0.000000000  0.000000000  0.000000000

 -----------------------------------------------------------------------------
|                                                                             |
|           W    W    AA    RRRRR   N    N  II  N    N   GGGG   !!!           |
|           W    W   A  A   R    R  NN   N  II  NN   N  G    G  !!!           |
|           W    W  A    A  R    R  N N  N  II  N N  N  G       !!!           |
|           W WW W  AAAAAA  RRRRR   N  N N  II  N  N N  G  GGG   !            |
|           WW  WW  A    A  R   R   N   NN  II  N   NN  G    G                |
|           W    W  A    A  R    R  N    N  II  N    N   GGGG   !!!           |
|                                                                             |
|     Your reciprocal lattice and k-lattice belong to different lattice       |
|     classes:                                                                |
|                                                                             |
|        The reciprocal lattice is simple cubic,                              |
|        whereas your k-lattice is simple tetragonal.                         |
|                                                                             |
|     Results are often still useful ...                                      |
|                                                                             |
 -----------------------------------------------------------------------------

 
 Subroutine IBZKPT returns following result:
 ===========================================
 
 Found      5 irreducible k-points:
 
 Following reciprocal coordinates:
            Coordinates               Weight
  0.000000  0.000000  0.000000      1.000000
  0.333333  0.000000  0.000000      2.000000
  0.000000  0.000000  0.333333      2.000000
  0.333333  0.000000  0.333333      2.000000
 -0.333333  0.000000  0.333333      2.000000
 
 Following cartesian coordinates:
            Coordinates               Weight
  0.000000  0.000000  0.000000      1.000000
  0.033333  0.000000  0.000000      2.000000
  0.000000  0.000000  0.033333      2.000000
  0.033333  0.000000  0.033333      2.000000
 -0.033333  0.000000  0.033333      2.000000
 
 WARNING: full set of k-points will be restricted to regular points only.

 writing wavefunctions
     LOOP+:  cpu time      4.9200: real time      5.0459
    4ORBIT:  cpu time      0.0000: real time      0.0000

 total amount of memory used by VASP MPI-rank0    66604. kBytes
=======================================================================

   base                                    :      30000. kBytes
   nonl-proj                               :      18948. kBytes
   fftplans                                :       7893. kBytes
   grid                                    :       8288. kBytes
   one-center                              :         15. kBytes
   wavefun                                 :       1460. kBytes
 
  
  
 General timing and accounting informations for this job:
 ========================================================
  
                  Total CPU time used (sec):      139.272
                            User time (sec):      134.351
                          System time (sec):        4.921
                         Elapsed time (sec):      143.254
  
                   Maximum memory used (kb):      266524.
                   Average memory used (kb):          N/A
  
                          Minor page faults:       261815
                          Major page faults:         2629
                 Voluntary context switches:         7354
