 vasp.6.4.2 20Jul23 (build Mar  7 2024 19:08:38) complex                         
 executed on             LinuxGNU date 2025.02.27  14:22:40
 running   64 mpi-ranks, with    1 threads/rank, on    1 nodes
 distrk:  each k-point on   64 cores,    1 groups
 distr:  one band on NCORE=   1 cores,   64 groups


--------------------------------------------------------------------------------------------------------


 INCAR:
   SYSTEM = CO molecule in a box
   ISMEAR = 0
   IBRION = 5
   POTIM = 0.02

 POTCAR:    PAW_PBE O 08Apr2002                   
 POTCAR:    PAW_PBE C 08Apr2002                   
 POTCAR:    PAW_PBE O 08Apr2002                   
   VRHFIN =O: s2p4                                                                                  
   LEXCH  = PE                                                                                      
   EATOM  =   432.3788 eV,   31.7789 Ry                                                             
                                                                                                    
   TITEL  = PAW_PBE O 08Apr2002                                                                     
   LULTRA =        F    use ultrasoft PP ?                                                          
   IUNSCR =        1    unscreen: 0-lin 1-nonlin 2-no                                               
   RPACOR =    1.200    partial core radius                                                         
   POMASS =   16.000; ZVAL   =    6.000    mass and valenz                                          
   RCORE  =    1.520    outmost cutoff radius                                                       
   RWIGS  =    1.550; RWIGS  =    0.820    wigner-seitz radius (au A)                               
   ENMAX  =  400.000; ENMIN  =  300.000 eV                                                          
   ICORE  =        2    local potential                                                             
   LCOR   =        T    correct aug charges                                                         
   LPAW   =        T    paw PP                                                                      
   EAUG   =  605.392                                                                                
   DEXC   =    0.000                                                                                
   RMAX   =    1.553    core radius for proj-oper                                                   
   RAUG   =    1.300    factor for augmentation sphere                                              
   RDEP   =    1.550    radius for radial grids                                                     
   RDEPT  =    1.329    core radius for aug-charge                                                  
                                                                                                    
   Atomic configuration                                                                             
    4 entries                                                                                       
     n  l   j            E        occ.                                                              
     1  0  0.50      -514.6923   2.0000                                                             
     2  0  0.50       -23.9615   2.0000                                                             
     2  1  0.50        -9.0305   4.0000                                                             
     3  2  1.50        -9.5241   0.0000                                                             
   Description                                                                                      
     l       E           TYP  RCUT    TYP  RCUT                                                     
     0    -23.9615318     23  1.200                                                                 
     0     -9.5240782     23  1.200                                                                 
     1     -9.0304911     23  1.520                                                                 
     1      8.1634956     23  1.520                                                                 
     2     -9.5240782      7  1.500                                                                 
  local pseudopotential read in
  partial core-charges read in
  partial kinetic energy density read in
  kinetic energy density of atom read in
  atomic valenz-charges read in
  non local Contribution for L=           0  read in
    real space projection operators read in
  non local Contribution for L=           0  read in
    real space projection operators read in
  non local Contribution for L=           1  read in
    real space projection operators read in
  non local Contribution for L=           1  read in
    real space projection operators read in
    PAW grid and wavefunctions read in

   number of l-projection  operators is LMAX  =           4
   number of lm-projection operators is LMMAX =           8

 POTCAR:    PAW_PBE C 08Apr2002                   
   VRHFIN =C: s2p2                                                                                  
   LEXCH  = PE                                                                                      
   EATOM  =   147.1560 eV,   10.8157 Ry                                                             
                                                                                                    
   TITEL  = PAW_PBE C 08Apr2002                                                                     
   LULTRA =        F    use ultrasoft PP ?                                                          
   IUNSCR =        1    unscreen: 0-lin 1-nonlin 2-no                                               
   RPACOR =    1.200    partial core radius                                                         
   POMASS =   12.011; ZVAL   =    4.000    mass and valenz                                          
   RCORE  =    1.500    outmost cutoff radius                                                       
   RWIGS  =    1.630; RWIGS  =    0.863    wigner-seitz radius (au A)                               
   ENMAX  =  400.000; ENMIN  =  300.000 eV                                                          
   ICORE  =        2    local potential                                                             
   LCOR   =        T    correct aug charges                                                         
   LPAW   =        T    paw PP                                                                      
   EAUG   =  644.873                                                                                
   DEXC   =    0.000                                                                                
   RMAX   =    1.529    core radius for proj-oper                                                   
   RAUG   =    1.300    factor for augmentation sphere                                              
   RDEP   =    1.501    radius for radial grids                                                     
   RDEPT  =    1.300    core radius for aug-charge                                                  
                                                                                                    
   Atomic configuration                                                                             
    4 entries                                                                                       
     n  l   j            E        occ.                                                              
     1  0  0.50      -273.3789   2.0000                                                             
     2  0  0.50       -13.7508   2.0000                                                             
     2  1  0.50        -5.2854   2.0000                                                             
     3  2  1.50        -5.4423   0.0000                                                             
   Description                                                                                      
     l       E           TYP  RCUT    TYP  RCUT                                                     
     0    -13.7508458     23  1.200                                                                 
     0     -8.2022199     23  1.200                                                                 
     1     -5.2854383     23  1.500                                                                 
     1     34.0145650     23  1.500                                                                 
     2     -5.4423304      7  1.500                                                                 
  local pseudopotential read in
  partial core-charges read in
  partial kinetic energy density read in
  atomic valenz-charges read in
  non local Contribution for L=           0  read in
    real space projection operators read in
  non local Contribution for L=           0  read in
    real space projection operators read in
  non local Contribution for L=           1  read in
    real space projection operators read in
  non local Contribution for L=           1  read in
    real space projection operators read in
    PAW grid and wavefunctions read in

   number of l-projection  operators is LMAX  =           4
   number of lm-projection operators is LMMAX =           8

  PAW_PBE O 08Apr2002                   :
 energy of atom  1       EATOM= -432.3788
 kinetic energy error for atom=    0.1156 (will be added to EATOM!!)
  PAW_PBE C 08Apr2002                   :
 energy of atom  2       EATOM= -147.1560
 kinetic energy error for atom=    0.0288 (will be added to EATOM!!)


 POSCAR: CO molecule in a box
  positions in direct lattice
  velocities in cartesian coordinates
 exchange correlation table for  LEXCH =        8
   RHO(1)=    0.500       N(1)  =     2000
   RHO(2)=  100.500       N(2)  =     4000

 VTST: version 4.1, (05/19/21)

 CHAIN: initializing optimizer
 
 OPT: Using VASP Dynamics algorithm
 CHAIN: Read ICHAIN            0

 POSCAR: CO molecule in a box
  positions in direct lattice
  velocities in cartesian coordinates



--------------------------------------------------------------------------------------------------------


 ion  position               nearest neighbor table
   1  0.000  0.000  0.017-   2 0.96
   2  0.000  0.000  0.113-   1 0.96

 -----------------------------------------------------------------------------
|                                                                             |
|           W    W    AA    RRRRR   N    N  II  N    N   GGGG   !!!           |
|           W    W   A  A   R    R  NN   N  II  NN   N  G    G  !!!           |
|           W    W  A    A  R    R  N N  N  II  N N  N  G       !!!           |
|           W WW W  AAAAAA  RRRRR   N  N N  II  N  N N  G  GGG   !            |
|           WW  WW  A    A  R   R   N   NN  II  N   NN  G    G                |
|           W    W  A    A  R    R  N    N  II  N    N   GGGG   !!!           |
|                                                                             |
|     The distance between some ions is very small. Please check the          |
|     nearest-neighbor list in the OUTCAR file.                               |
|     I HOPE YOU KNOW WHAT YOU ARE DOING!                                     |
|                                                                             |
 -----------------------------------------------------------------------------

  LATTYP: Found a simple cubic cell.
 ALAT       =    10.0000000000
  
  Lattice vectors:
  
 A1 = (  10.0000000000,   0.0000000000,   0.0000000000)
 A2 = (   0.0000000000,  10.0000000000,   0.0000000000)
 A3 = (   0.0000000000,   0.0000000000,  10.0000000000)


Analysis of symmetry for initial positions (statically):
=====================================================================
 Subroutine PRICEL returns:
 Original cell was already a primitive cell.
 

 Routine SETGRP: Setting up the symmetry group for a 
 simple cubic supercell.


 Subroutine GETGRP returns: Found  8 space group operations
 (whereof  8 operations were pure point group operations)
 out of a pool of 48 trial point group operations.


The static configuration has the point symmetry C_4v.


Analysis of symmetry for dynamics (positions and initial velocities):
=====================================================================
 Subroutine PRICEL returns:
 Original cell was already a primitive cell.
 

 Routine SETGRP: Setting up the symmetry group for a 
 simple cubic supercell.


 Subroutine GETGRP returns: Found  8 space group operations
 (whereof  8 operations were pure point group operations)
 out of a pool of 48 trial point group operations.


The dynamic configuration has the point symmetry C_4v.


 Subroutine INISYM returns: Found  8 space group operations
 (whereof  8 operations are pure point group operations),
 and found     1 'primitive' translations


----------------------------------------------------------------------------------------

                                     Primitive cell                                     

  volume of cell :    1000.0000

  direct lattice vectors                    reciprocal lattice vectors
    10.000000000  0.000000000  0.000000000     0.100000000  0.000000000  0.000000000
     0.000000000 10.000000000  0.000000000     0.000000000  0.100000000  0.000000000
     0.000000000  0.000000000 10.000000000     0.000000000  0.000000000  0.100000000

  length of vectors
    10.000000000 10.000000000 10.000000000     0.100000000  0.100000000  0.100000000

  position of ions in fractional coordinates (direct lattice)
     0.000000000  0.000000000  0.017209031
     0.000000000  0.000000000  0.112790969

  ion indices of the primitive-cell ions
   primitive index   ion index
                 1           1
                 2           2

----------------------------------------------------------------------------------------



 KPOINTS: Gamma-point only                        

Automatic generation of k-mesh.
 Grid dimensions read from file:
 generate k-points for:    1    1    1

 Generating k-lattice:

  Cartesian coordinates                     Fractional coordinates (reciprocal lattice)
     0.100000000  0.000000000  0.000000000     1.000000000  0.000000000  0.000000000
     0.000000000  0.100000000  0.000000000     0.000000000  1.000000000  0.000000000
     0.000000000  0.000000000  0.100000000     0.000000000  0.000000000  1.000000000

  Length of vectors
     0.100000000  0.100000000  0.100000000

  Shift w.r.t. Gamma in fractional coordinates (k-lattice)
     0.000000000  0.000000000  0.000000000

 
 Subroutine IBZKPT returns following result:
 ===========================================
 
 Found      1 irreducible k-points:
 
 Following reciprocal coordinates:
            Coordinates               Weight
  0.000000  0.000000  0.000000      1.000000
 
 Following cartesian coordinates:
            Coordinates               Weight
  0.000000  0.000000  0.000000      1.000000
 
 
 Subroutine IBZKPT_HF returns following result:
 ==============================================
 
 Found      1 k-points in 1st BZ
 the following      1 k-points will be used (e.g. in the exchange kernel)
 Following reciprocal coordinates:   # in IRBZ
  0.000000  0.000000  0.000000    1.00000000   1 t-inv F


--------------------------------------------------------------------------------------------------------




 Dimension of arrays:
   k-points           NKPTS =      1   k-points in BZ     NKDIM =      1   number of bands    NBANDS=     64
   number of dos      NEDOS =    301   number of ions     NIONS =      2
   non local maximal  LDIM  =      4   non local SUM 2l+1 LMDIM =      8
   total plane-waves  NPLWV = 125000
   max r-space proj   IRMAX =      1   max aug-charges    IRDMAX=   1821
   dimension x,y,z NGX =    50 NGY =   50 NGZ =   50
   dimension x,y,z NGXF=   100 NGYF=  100 NGZF=  100
   support grid    NGXF=   100 NGYF=  100 NGZF=  100
   ions per type =               1   1
   NGX,Y,Z   is equivalent  to a cutoff of   8.31,  8.31,  8.31 a.u.
   NGXF,Y,Z  is equivalent  to a cutoff of  16.62, 16.62, 16.62 a.u.

 SYSTEM =  CO molecule in a box                    
 POSCAR =  CO molecule in a box                    

 Startparameter for this run:
   NWRITE =      2    write-flag & timer
   PREC   = normal    normal or accurate (medium, high low for compatibility)
   ISTART =      0    job   : 0-new  1-cont  2-samecut
   ICHARG =      2    charge: 1-file 2-atom 10-const
   ISPIN  =      1    spin polarized calculation?
   LNONCOLLINEAR =      F non collinear calculations
   LSORBIT =      F    spin-orbit coupling
   INIWAV =      1    electr: 0-lowe 1-rand  2-diag
   LASPH  =      F    aspherical Exc in radial PAW
 Electronic Relaxation 1
   ENCUT  =  400.0 eV  29.40 Ry    5.42 a.u.  16.31 16.31 16.31*2*pi/ulx,y,z
   ENINI  =  400.0     initial cutoff
   ENAUG  =  644.9 eV  augmentation charge cutoff
   NELM   =     60;   NELMIN=  2; NELMDL= -5     # of ELM steps 
   EDIFF  = 0.1E-05   stopping-criterion for ELM
   LREAL  =      F    real-space projection
   NLSPLINE    = F    spline interpolate recip. space projectors
   LCOMPAT=      F    compatible to vasp.4.4
   GGA_COMPAT  = T    GGA compatible to vasp.4.4-vasp.4.6
   LMAXPAW     = -100 max onsite density
   LMAXMIX     =    2 max onsite mixed and CHGCAR
   VOSKOWN=      0    Vosko Wilk Nusair interpolation
   ROPT   =    0.00000   0.00000
 Ionic relaxation
   EDIFFG = 0.1E-04   stopping-criterion for IOM
   NSW    =     61    number of steps for IOM
   NBLOCK =      1;   KBLOCK =     61    inner block; outer block 
   IBRION =      5    ionic relax: 0-MD 1-quasi-New 2-CG
   NFREE  =      2    steps in history (QN), initial steepest desc. (CG)
   ISIF   =      2    stress and relaxation
   IWAVPR =     11    prediction:  0-non 1-charg 2-wave 3-comb
   ISYM   =      2    0-nonsym 1-usesym 2-fastsym
   LCORR  =      T    Harris-Foulkes like correction to forces

   POTIM  = 0.0200    time-step for ionic-motion
   TEIN   =    0.0    initial temperature
   TEBEG  =    0.0;   TEEND  =   0.0 temperature during run
   SMASS  =  -3.00    Nose mass-parameter (am)
   estimated Nose-frequenzy (Omega)   =  0.10E-29 period in steps = 0.31E+48 mass=  -0.229E-26a.u.
   SCALEE = 1.0000    scale energy and forces
   NPACO  =    256;   APACO  = 10.0  distance and # of slots for P.C.
   PSTRESS=    0.0 pullay stress

  Mass of Ions in am
   POMASS =  16.00 12.01
  Ionic Valenz
   ZVAL   =   6.00  4.00
  Atomic Wigner-Seitz radii
   RWIGS  =  -1.00 -1.00
  virtual crystal weights 
   VCA    =   1.00  1.00
   NELECT =      10.0000    total number of electrons
   NUPDOWN=      -1.0000    fix difference up-down

 DOS related values:
   EMIN   =  10.00;   EMAX   =-10.00  energy-range for DOS
   EFERMI =   0.00;   METHOD = LEGACY      
   ISMEAR =     0;   SIGMA  =   0.20  broadening in eV -4-tet -1-fermi 0-gaus

 Electronic relaxation 2 (details)
   IALGO  =     38    algorithm
   LDIAG  =      T    sub-space diagonalisation (order eigenvalues)
   LSUBROT=      F    optimize rotation matrix (better conditioning)
   TURBO    =      0    0=normal 1=particle mesh
   IRESTART =      0    0=no restart 2=restart with 2 vectors
   NREBOOT  =      0    no. of reboots
   NMIN     =      0    reboot dimension
   EREF     =   0.00    reference energy to select bands
   IMIX   =      4    mixing-type and parameters
     AMIX     =   0.40;   BMIX     =  1.00
     AMIX_MAG =   1.60;   BMIX_MAG =  1.00
     AMIN     =   0.10
     WC   =   100.;   INIMIX=   1;  MIXPRE=   1;  MAXMIX= -45

 Intra band minimization:
   WEIMIN = 0.0010     energy-eigenvalue tresh-hold
   EBREAK =  0.39E-08  absolut break condition
   DEPER  =   0.30     relativ break condition  

   TIME   =   0.40     timestep for ELM

  volume/ion in A,a.u.               =     500.00      3374.17
  Fermi-wavevector in a.u.,A,eV,Ry     =   0.352702  0.666511  1.692549  0.124399
  Thomas-Fermi vector in A             =   1.266362

 Write flags
   LWAVE        =      T    write WAVECAR
   LDOWNSAMPLE  =      F    k-point downsampling of WAVECAR
   LCHARG       =      T    write CHGCAR
   LVTOT        =      F    write LOCPOT, total local potential
   LVHAR        =      F    write LOCPOT, Hartree potential only
   LELF         =      F    write electronic localiz. function (ELF)
   LORBIT       =      0    0 simple, 1 ext, 2 COOP (PROOUT), +10 PAW based schemes


 Dipole corrections
   LMONO  =      F    monopole corrections only (constant potential shift)
   LDIPOL =      F    correct potential (dipole corrections)
   IDIPOL =      0    1-x, 2-y, 3-z, 4-all directions 
   EPSILON=  1.0000000 bulk dielectric constant

 Exchange correlation treatment:
   GGA     =    --    GGA type
   LEXCH   =     8    internal setting for exchange type
   LIBXC   =     F    Libxc                    
   VOSKOWN =     0    Vosko Wilk Nusair interpolation
   LHFCALC =     F    Hartree Fock is set to
   LHFONE  =     F    Hartree Fock one center treatment
   AEXX    =    0.0000 exact exchange contribution

 Linear response parameters
   LEPSILON=     F    determine dielectric tensor
   LRPA    =     F    only Hartree local field effects (RPA)
   LNABLA  =     F    use nabla operator in PAW spheres
   LVEL    =     F    velocity operator in full k-point grid
   CSHIFT  =0.1000    complex shift for real part using Kramers Kronig
   OMEGAMAX=  -1.0    maximum frequency
   DEG_THRESHOLD= 0.2000000E-02 threshold for treating states as degnerate
   RTIME   =   -0.100 relaxation time in fs
  (WPLASMAI=    0.000 imaginary part of plasma frequency in eV, 0.658/RTIME)
   DFIELD  = 0.0000000 0.0000000 0.0000000 field for delta impulse in time

  Optional k-point grid parameters
   LKPOINTS_OPT  =     F    use optional k-point grid
   KPOINTS_OPT_MODE=     1    mode for optional k-point grid

 Orbital magnetization related:
   ORBITALMAG=     F  switch on orbital magnetization
   LCHIMAG   =     F  perturbation theory with respect to B field
   DQ        =  0.001000  dq finite difference perturbation B field
   LLRAUG    =     F  two centre corrections for induced B field
   LBONE     =     F  B-component reconstruction in AE one-centre
   LVGVCALC  =     T  calculate vGv susceptibility
   LVGVAPPL  =     F  apply vGv susceptibility instead of pGv for G=0

 Random number generation:
   RANDOM_GENERATOR = DEFAULT
   PCG_SEED         = not used


--------------------------------------------------------------------------------------------------------


 finite differences
 charge density and potential will be updated during run
 non-spin polarized calculation
 Variant of blocked Davidson
 Davidson routine will perform the subspace rotation
 perform sub-space diagonalisation
    after iterative eigenvector-optimisation
 modified Broyden-mixing scheme, WC =      100.0
 initial mixing is a Kerker type mixing with AMIX =  0.4000 and BMIX =      1.0000
 Hartree-type preconditioning will be used
 using additional bands           59
 reciprocal scheme for non local part
 use partial core corrections
 calculate Harris-corrections to forces   (improved forces if not selfconsistent)
 use gradient corrections 
 use of overlap-Matrix (Vanderbilt PP)
 Gauss-broadening in eV      SIGMA  =   0.20


--------------------------------------------------------------------------------------------------------


  energy-cutoff  :      400.00
  volume of cell :     1000.00
      direct lattice vectors                 reciprocal lattice vectors
    10.000000000  0.000000000  0.000000000     0.100000000  0.000000000  0.000000000
     0.000000000 10.000000000  0.000000000     0.000000000  0.100000000  0.000000000
     0.000000000  0.000000000 10.000000000     0.000000000  0.000000000  0.100000000

  length of vectors
    10.000000000 10.000000000 10.000000000     0.100000000  0.100000000  0.100000000



 k-points in units of 2pi/SCALE and weight: Gamma-point only                        
   0.00000000  0.00000000  0.00000000       1.000

 k-points in reciprocal lattice and weights: Gamma-point only                        
   0.00000000  0.00000000  0.00000000       1.000

 position of ions in fractional coordinates (direct lattice) 
   0.00000000  0.00000000  0.01720903
   0.00000000  0.00000000  0.11279097

 position of ions in cartesian coordinates  (Angst):
   0.00000000  0.00000000  0.17209031
   0.00000000  0.00000000  1.12790969



--------------------------------------------------------------------------------------------------------


 k-point   1 :   0.0000 0.0000 0.0000  plane waves:   18037

 maximum and minimum number of plane-waves per node :     18037    18037

 maximum number of plane-waves:     18037
 maximum index in each direction: 
   IXMAX=   16   IYMAX=   16   IZMAX=   16
   IXMIN=  -16   IYMIN=  -16   IZMIN=  -16


 serial   3D FFT for wavefunctions
 parallel 3D FFT for charge:
    minimum data exchange during FFTs selected (reduces bandwidth)


 total amount of memory used by VASP MPI-rank0    40538. kBytes
=======================================================================

   base      :      30000. kBytes
   nonl-proj :       2887. kBytes
   fftplans  :       1180. kBytes
   grid      :       6176. kBytes
   one-center:          6. kBytes
   wavefun   :        289. kBytes

     INWAV:  cpu time      0.0000: real time      0.0009
 Broyden mixing: mesh for mixing (old mesh)
   NGX = 33   NGY = 33   NGZ = 33
  (NGX  =100   NGY  =100   NGZ  =100)
  gives a total of  35937 points

 initial charge density was supplied:
 charge density of overlapping atoms calculated
 number of electron      10.0000000 magnetization 
 keeping initial charge density in first step


--------------------------------------------------------------------------------------------------------


 Maximum index for augmentation-charges          164 (set IRDMAX)


--------------------------------------------------------------------------------------------------------


 First call to EWALD:  gamma=   0.177
 Maximum number of real-space cells 3x 3x 3
 Maximum number of reciprocal cells 3x 3x 3

    FEWALD:  cpu time      0.0007: real time      0.0007


--------------------------------------- Ionic step        1  -------------------------------------------




--------------------------------------- Iteration      1(   1)  ---------------------------------------


    POTLOK:  cpu time      0.0230: real time      0.0231
    SETDIJ:  cpu time      0.0014: real time      0.0014
     EDDAV:  cpu time      0.1219: real time      0.1239
       DOS:  cpu time      0.0006: real time      0.0007
    --------------------------------------------
      LOOP:  cpu time      0.1469: real time      0.1491

 eigenvalue-minimisations  :   128
 total energy-change (2. order) : 0.3957434E+02  (-0.2439712E+03)
 number of electron      10.0000000 magnetization 
 augmentation part       10.0000000 magnetization 

 Free energy of the ion-electron system (eV)
  ---------------------------------------------------
  alpha Z        PSCENC =         0.43695755
  Ewald energy   TEWEN  =       157.95709055
  -Hartree energ DENC   =      -590.23869952
  -exchange      EXHF   =         0.00000000
  -V(xc)+E(xc)   XCENC  =        40.14082438
  PAW double counting   =       455.07152327     -457.43959975
  entropy T*S    EENTRO =        -0.00000000
  eigenvalues    EBANDS =      -145.74417664
  atomic energy  EATOM  =       579.39041991
  Solvation  Ediel_sol  =         0.00000000
  ---------------------------------------------------
  free energy    TOTEN  =        39.57433977 eV

  energy without entropy =       39.57433977  energy(sigma->0) =       39.57433977


--------------------------------------------------------------------------------------------------------




--------------------------------------- Iteration      1(   2)  ---------------------------------------


     EDDAV:  cpu time      0.1230: real time      0.1244
       DOS:  cpu time      0.0008: real time      0.0008
    --------------------------------------------
      LOOP:  cpu time      0.1237: real time      0.1252

 eigenvalue-minimisations  :   128
 total energy-change (2. order) :-0.5209757E+02  (-0.5209757E+02)
 number of electron      10.0000000 magnetization 
 augmentation part       10.0000000 magnetization 

 Free energy of the ion-electron system (eV)
  ---------------------------------------------------
  alpha Z        PSCENC =         0.43695755
  Ewald energy   TEWEN  =       157.95709055
  -Hartree energ DENC   =      -590.23869952
  -exchange      EXHF   =         0.00000000
  -V(xc)+E(xc)   XCENC  =        40.14082438
  PAW double counting   =       455.07152327     -457.43959975
  entropy T*S    EENTRO =        -0.00000000
  eigenvalues    EBANDS =      -197.84174388
  atomic energy  EATOM  =       579.39041991
  Solvation  Ediel_sol  =         0.00000000
  ---------------------------------------------------
  free energy    TOTEN  =       -12.52322747 eV

  energy without entropy =      -12.52322747  energy(sigma->0) =      -12.52322747


--------------------------------------------------------------------------------------------------------




--------------------------------------- Iteration      1(   3)  ---------------------------------------


     EDDAV:  cpu time      0.1210: real time      0.1216
       DOS:  cpu time      0.0009: real time      0.0009
    --------------------------------------------
      LOOP:  cpu time      0.1219: real time      0.1224

 eigenvalue-minimisations  :   128
 total energy-change (2. order) :-0.1253984E+01  (-0.1253984E+01)
 number of electron      10.0000000 magnetization 
 augmentation part       10.0000000 magnetization 

 Free energy of the ion-electron system (eV)
  ---------------------------------------------------
  alpha Z        PSCENC =         0.43695755
  Ewald energy   TEWEN  =       157.95709055
  -Hartree energ DENC   =      -590.23869952
  -exchange      EXHF   =         0.00000000
  -V(xc)+E(xc)   XCENC  =        40.14082438
  PAW double counting   =       455.07152327     -457.43959975
  entropy T*S    EENTRO =        -0.00000000
  eigenvalues    EBANDS =      -199.09572805
  atomic energy  EATOM  =       579.39041991
  Solvation  Ediel_sol  =         0.00000000
  ---------------------------------------------------
  free energy    TOTEN  =       -13.77721165 eV

  energy without entropy =      -13.77721165  energy(sigma->0) =      -13.77721165


--------------------------------------------------------------------------------------------------------




--------------------------------------- Iteration      1(   4)  ---------------------------------------


     EDDAV:  cpu time      0.1189: real time      0.1194
       DOS:  cpu time      0.0007: real time      0.0007
    --------------------------------------------
      LOOP:  cpu time      0.1196: real time      0.1202

 eigenvalue-minimisations  :   128
 total energy-change (2. order) :-0.4909120E-02  (-0.4909120E-02)
 number of electron      10.0000000 magnetization 
 augmentation part       10.0000000 magnetization 

 Free energy of the ion-electron system (eV)
  ---------------------------------------------------
  alpha Z        PSCENC =         0.43695755
  Ewald energy   TEWEN  =       157.95709055
  -Hartree energ DENC   =      -590.23869952
  -exchange      EXHF   =         0.00000000
  -V(xc)+E(xc)   XCENC  =        40.14082438
  PAW double counting   =       455.07152327     -457.43959975
  entropy T*S    EENTRO =        -0.00000000
  eigenvalues    EBANDS =      -199.10063717
  atomic energy  EATOM  =       579.39041991
  Solvation  Ediel_sol  =         0.00000000
  ---------------------------------------------------
  free energy    TOTEN  =       -13.78212077 eV

  energy without entropy =      -13.78212077  energy(sigma->0) =      -13.78212077


--------------------------------------------------------------------------------------------------------




--------------------------------------- Iteration      1(   5)  ---------------------------------------


     EDDAV:  cpu time      0.3904: real time      0.3919
       DOS:  cpu time      0.0008: real time      0.0008
    CHARGE:  cpu time      0.0296: real time      0.0298
    MIXING:  cpu time      0.0004: real time      0.0004
    --------------------------------------------
      LOOP:  cpu time      0.4213: real time      0.4229

 eigenvalue-minimisations  :   256
 total energy-change (2. order) :-0.3571575E-04  (-0.3571575E-04)
 number of electron      10.0000048 magnetization 
 augmentation part        0.8603257 magnetization 

 Broyden mixing:
  rms(total) = 0.99727E+00    rms(broyden)= 0.99631E+00
  rms(prec ) = 0.11852E+01
  weight for this iteration     100.00

 Free energy of the ion-electron system (eV)
  ---------------------------------------------------
  alpha Z        PSCENC =         0.43695755
  Ewald energy   TEWEN  =       157.95709055
  -Hartree energ DENC   =      -590.23869952
  -exchange      EXHF   =         0.00000000
  -V(xc)+E(xc)   XCENC  =        40.14082438
  PAW double counting   =       455.07152327     -457.43959975
  entropy T*S    EENTRO =        -0.00000000
  eigenvalues    EBANDS =      -199.10067289
  atomic energy  EATOM  =       579.39041991
  Solvation  Ediel_sol  =         0.00000000
  ---------------------------------------------------
  free energy    TOTEN  =       -13.78215648 eV

  energy without entropy =      -13.78215648  energy(sigma->0) =      -13.78215648


--------------------------------------------------------------------------------------------------------




--------------------------------------- Iteration      1(   6)  ---------------------------------------


    POTLOK:  cpu time      0.0185: real time      0.0186
    SETDIJ:  cpu time      0.0012: real time      0.0013
     EDDAV:  cpu time      0.1185: real time      0.1190
       DOS:  cpu time      0.0015: real time      0.0015
    CHARGE:  cpu time      0.0310: real time      0.0311
    MIXING:  cpu time      0.0008: real time      0.0019
    --------------------------------------------
      LOOP:  cpu time      0.1716: real time      0.1734

 eigenvalue-minimisations  :   128
 total energy-change (2. order) : 0.1849045E+01  (-0.4148197E+00)
 number of electron      10.0000040 magnetization 
 augmentation part        0.7921845 magnetization 

 Broyden mixing:
  rms(total) = 0.49401E+00    rms(broyden)= 0.49380E+00
  rms(prec ) = 0.56291E+00
  weight for this iteration     100.00

 eigenvalues of (default mixing * dielectric matrix)
  average eigenvalue GAMMA=   1.5079
  1.5079

 Free energy of the ion-electron system (eV)
  ---------------------------------------------------
  alpha Z        PSCENC =         0.43695755
  Ewald energy   TEWEN  =       157.95709055
  -Hartree energ DENC   =      -612.23867553
  -exchange      EXHF   =         0.00000000
  -V(xc)+E(xc)   XCENC  =        41.36084561
  PAW double counting   =       687.52274170     -690.28797417
  entropy T*S    EENTRO =        -0.00000000
  eigenvalues    EBANDS =      -176.07451682
  atomic energy  EATOM  =       579.39041991
  Solvation  Ediel_sol  =         0.00000000
  ---------------------------------------------------
  free energy    TOTEN  =       -11.93311119 eV

  energy without entropy =      -11.93311119  energy(sigma->0) =      -11.93311119


--------------------------------------------------------------------------------------------------------




--------------------------------------- Iteration      1(   7)  ---------------------------------------


    POTLOK:  cpu time      0.0182: real time      0.0183
    SETDIJ:  cpu time      0.0012: real time      0.0012
     EDDAV:  cpu time      0.2188: real time      0.2197
       DOS:  cpu time      0.0005: real time      0.0005
    CHARGE:  cpu time      0.0295: real time      0.0296
    MIXING:  cpu time      0.0005: real time      0.0005
    --------------------------------------------
      LOOP:  cpu time      0.2688: real time      0.2699

 eigenvalue-minimisations  :   192
 total energy-change (2. order) : 0.3643045E+00  (-0.1088267E+00)
 number of electron      10.0000041 magnetization 
 augmentation part        0.7827938 magnetization 

 Broyden mixing:
  rms(total) = 0.19458E+00    rms(broyden)= 0.19453E+00
  rms(prec ) = 0.20806E+00
  weight for this iteration     100.00

 eigenvalues of (default mixing * dielectric matrix)
  average eigenvalue GAMMA=   1.5488
  1.0187  2.0788

 Free energy of the ion-electron system (eV)
  ---------------------------------------------------
  alpha Z        PSCENC =         0.43695755
  Ewald energy   TEWEN  =       157.95709055
  -Hartree energ DENC   =      -622.84428930
  -exchange      EXHF   =         0.00000000
  -V(xc)+E(xc)   XCENC  =        41.96051151
  PAW double counting   =       964.58658100     -967.50639954
  entropy T*S    EENTRO =        -0.00000000
  eigenvalues    EBANDS =      -165.54967836
  atomic energy  EATOM  =       579.39041991
  Solvation  Ediel_sol  =         0.00000000
  ---------------------------------------------------
  free energy    TOTEN  =       -11.56880667 eV

  energy without entropy =      -11.56880667  energy(sigma->0) =      -11.56880667


--------------------------------------------------------------------------------------------------------




--------------------------------------- Iteration      1(   8)  ---------------------------------------


    POTLOK:  cpu time      0.0179: real time      0.0180
    SETDIJ:  cpu time      0.0012: real time      0.0012
     EDDAV:  cpu time      0.2185: real time      0.2194
       DOS:  cpu time      0.0004: real time      0.0004
    CHARGE:  cpu time      0.0296: real time      0.0297
    MIXING:  cpu time      0.0005: real time      0.0005
    --------------------------------------------
      LOOP:  cpu time      0.2681: real time      0.2693

 eigenvalue-minimisations  :   192
 total energy-change (2. order) : 0.1395071E-01  (-0.6020077E-02)
 number of electron      10.0000040 magnetization 
 augmentation part        0.7754188 magnetization 

 Broyden mixing:
  rms(total) = 0.77932E-01    rms(broyden)= 0.77914E-01
  rms(prec ) = 0.86165E-01
  weight for this iteration     100.00

 eigenvalues of (default mixing * dielectric matrix)
  average eigenvalue GAMMA=   1.6951
  2.4888  0.9034  1.6929

 Free energy of the ion-electron system (eV)
  ---------------------------------------------------
  alpha Z        PSCENC =         0.43695755
  Ewald energy   TEWEN  =       157.95709055
  -Hartree energ DENC   =      -625.95299131
  -exchange      EXHF   =         0.00000000
  -V(xc)+E(xc)   XCENC  =        42.14191298
  PAW double counting   =      1129.26868424    -1132.21756509
  entropy T*S    EENTRO =        -0.00000000
  eigenvalues    EBANDS =      -162.57936479
  atomic energy  EATOM  =       579.39041991
  Solvation  Ediel_sol  =         0.00000000
  ---------------------------------------------------
  free energy    TOTEN  =       -11.55485596 eV

  energy without entropy =      -11.55485596  energy(sigma->0) =      -11.55485596


--------------------------------------------------------------------------------------------------------




--------------------------------------- Iteration      1(   9)  ---------------------------------------


    POTLOK:  cpu time      0.0179: real time      0.0180
    SETDIJ:  cpu time      0.0012: real time      0.0012
     EDDAV:  cpu time      0.2157: real time      0.2166
       DOS:  cpu time      0.0005: real time      0.0005
    CHARGE:  cpu time      0.0285: real time      0.0287
    MIXING:  cpu time      0.0005: real time      0.0005
    --------------------------------------------
      LOOP:  cpu time      0.2645: real time      0.2655

 eigenvalue-minimisations  :   192
 total energy-change (2. order) : 0.9133150E-03  (-0.1185007E-02)
 number of electron      10.0000040 magnetization 
 augmentation part        0.7772544 magnetization 

 Broyden mixing:
  rms(total) = 0.83505E-02    rms(broyden)= 0.83459E-02
  rms(prec ) = 0.16796E-01
  weight for this iteration     100.00

 eigenvalues of (default mixing * dielectric matrix)
  average eigenvalue GAMMA=   1.5512
  2.3825  0.8931  1.3857  1.5437

 Free energy of the ion-electron system (eV)
  ---------------------------------------------------
  alpha Z        PSCENC =         0.43695755
  Ewald energy   TEWEN  =       157.95709055
  -Hartree energ DENC   =      -625.34994996
  -exchange      EXHF   =         0.00000000
  -V(xc)+E(xc)   XCENC  =        42.11104116
  PAW double counting   =      1217.95549022    -1220.86762604
  entropy T*S    EENTRO =        -0.00000000
  eigenvalues    EBANDS =      -163.18736603
  atomic energy  EATOM  =       579.39041991
  Solvation  Ediel_sol  =         0.00000000
  ---------------------------------------------------
  free energy    TOTEN  =       -11.55394265 eV

  energy without entropy =      -11.55394265  energy(sigma->0) =      -11.55394265


--------------------------------------------------------------------------------------------------------




--------------------------------------- Iteration      1(  10)  ---------------------------------------


    POTLOK:  cpu time      0.0176: real time      0.0177
    SETDIJ:  cpu time      0.0012: real time      0.0012
     EDDAV:  cpu time      0.2172: real time      0.2180
       DOS:  cpu time      0.0005: real time      0.0005
    CHARGE:  cpu time      0.0303: real time      0.0304
    MIXING:  cpu time      0.0006: real time      0.0006
    --------------------------------------------
      LOOP:  cpu time      0.2673: real time      0.2684

 eigenvalue-minimisations  :   192
 total energy-change (2. order) :-0.1656070E-02  (-0.8437878E-04)
 number of electron      10.0000040 magnetization 
 augmentation part        0.7766956 magnetization 

 Broyden mixing:
  rms(total) = 0.47868E-02    rms(broyden)= 0.47860E-02
  rms(prec ) = 0.12287E-01
  weight for this iteration     100.00

 eigenvalues of (default mixing * dielectric matrix)
  average eigenvalue GAMMA=   1.7753
  2.8443  2.4902  0.8875  1.0865  1.5678

 Free energy of the ion-electron system (eV)
  ---------------------------------------------------
  alpha Z        PSCENC =         0.43695755
  Ewald energy   TEWEN  =       157.95709055
  -Hartree energ DENC   =      -625.76436639
  -exchange      EXHF   =         0.00000000
  -V(xc)+E(xc)   XCENC  =        42.12943518
  PAW double counting   =      1211.62003836    -1214.53412448
  entropy T*S    EENTRO =        -0.00000000
  eigenvalues    EBANDS =      -162.79104941
  atomic energy  EATOM  =       579.39041991
  Solvation  Ediel_sol  =         0.00000000
  ---------------------------------------------------
  free energy    TOTEN  =       -11.55559872 eV

  energy without entropy =      -11.55559872  energy(sigma->0) =      -11.55559872


--------------------------------------------------------------------------------------------------------




--------------------------------------- Iteration      1(  11)  ---------------------------------------


    POTLOK:  cpu time      0.0176: real time      0.0177
    SETDIJ:  cpu time      0.0013: real time      0.0013
     EDDAV:  cpu time      0.2161: real time      0.2170
       DOS:  cpu time      0.0007: real time      0.0007
    CHARGE:  cpu time      0.0301: real time      0.0303
    MIXING:  cpu time      0.0006: real time      0.0006
    --------------------------------------------
      LOOP:  cpu time      0.2664: real time      0.2674

 eigenvalue-minimisations  :   192
 total energy-change (2. order) :-0.2946052E-02  (-0.9746282E-04)
 number of electron      10.0000040 magnetization 
 augmentation part        0.7768947 magnetization 

 Broyden mixing:
  rms(total) = 0.23025E-02    rms(broyden)= 0.23018E-02
  rms(prec ) = 0.55933E-02
  weight for this iteration     100.00

 eigenvalues of (default mixing * dielectric matrix)
  average eigenvalue GAMMA=   1.9304
  3.5744  2.2949  2.2111  0.8845  1.0481  1.5693

 Free energy of the ion-electron system (eV)
  ---------------------------------------------------
  alpha Z        PSCENC =         0.43695755
  Ewald energy   TEWEN  =       157.95709055
  -Hartree energ DENC   =      -626.06351172
  -exchange      EXHF   =         0.00000000
  -V(xc)+E(xc)   XCENC  =        42.13694273
  PAW double counting   =      1211.85110865    -1214.75807669
  entropy T*S    EENTRO =        -0.00000000
  eigenvalues    EBANDS =      -162.50947575
  atomic energy  EATOM  =       579.39041991
  Solvation  Ediel_sol  =         0.00000000
  ---------------------------------------------------
  free energy    TOTEN  =       -11.55854477 eV

  energy without entropy =      -11.55854477  energy(sigma->0) =      -11.55854477


--------------------------------------------------------------------------------------------------------




--------------------------------------- Iteration      1(  12)  ---------------------------------------


    POTLOK:  cpu time      0.0175: real time      0.0176
    SETDIJ:  cpu time      0.0012: real time      0.0012
     EDDAV:  cpu time      0.2159: real time      0.2168
       DOS:  cpu time      0.0005: real time      0.0005
    CHARGE:  cpu time      0.0299: real time      0.0300
    MIXING:  cpu time      0.0006: real time      0.0006
    --------------------------------------------
      LOOP:  cpu time      0.2657: real time      0.2668

 eigenvalue-minimisations  :   192
 total energy-change (2. order) :-0.1909644E-02  (-0.3753923E-04)
 number of electron      10.0000040 magnetization 
 augmentation part        0.7767629 magnetization 

 Broyden mixing:
  rms(total) = 0.13007E-02    rms(broyden)= 0.13005E-02
  rms(prec ) = 0.29870E-02
  weight for this iteration     100.00

 eigenvalues of (default mixing * dielectric matrix)
  average eigenvalue GAMMA=   2.0691
  4.7859  2.6840  2.3765  1.6235  0.8837  1.0320  1.0982

 Free energy of the ion-electron system (eV)
  ---------------------------------------------------
  alpha Z        PSCENC =         0.43695755
  Ewald energy   TEWEN  =       157.95709055
  -Hartree energ DENC   =      -626.24726070
  -exchange      EXHF   =         0.00000000
  -V(xc)+E(xc)   XCENC  =        42.14094343
  PAW double counting   =      1211.75416553    -1214.66419370
  entropy T*S    EENTRO =        -0.00000000
  eigenvalues    EBANDS =      -162.32857697
  atomic energy  EATOM  =       579.39041991
  Solvation  Ediel_sol  =         0.00000000
  ---------------------------------------------------
  free energy    TOTEN  =       -11.56045441 eV

  energy without entropy =      -11.56045441  energy(sigma->0) =      -11.56045441


--------------------------------------------------------------------------------------------------------




--------------------------------------- Iteration      1(  13)  ---------------------------------------


    POTLOK:  cpu time      0.0174: real time      0.0175
    SETDIJ:  cpu time      0.0012: real time      0.0012
     EDDAV:  cpu time      0.2160: real time      0.2168
       DOS:  cpu time      0.0004: real time      0.0004
    CHARGE:  cpu time      0.0293: real time      0.0294
    MIXING:  cpu time      0.0007: real time      0.0007
    --------------------------------------------
      LOOP:  cpu time      0.2649: real time      0.2660

 eigenvalue-minimisations  :   192
 total energy-change (2. order) :-0.9719482E-03  (-0.1201272E-04)
 number of electron      10.0000040 magnetization 
 augmentation part        0.7768499 magnetization 

 Broyden mixing:
  rms(total) = 0.84605E-03    rms(broyden)= 0.84592E-03
  rms(prec ) = 0.16024E-02
  weight for this iteration     100.00

 eigenvalues of (default mixing * dielectric matrix)
  average eigenvalue GAMMA=   2.3081
  6.2670  2.9182  2.4134  2.3335  1.6199  0.8837  1.0145  1.0145

 Free energy of the ion-electron system (eV)
  ---------------------------------------------------
  alpha Z        PSCENC =         0.43695755
  Ewald energy   TEWEN  =       157.95709055
  -Hartree energ DENC   =      -626.20625399
  -exchange      EXHF   =         0.00000000
  -V(xc)+E(xc)   XCENC  =        42.13616026
  PAW double counting   =      1210.53280255    -1213.44325472
  entropy T*S    EENTRO =        -0.00000000
  eigenvalues    EBANDS =      -162.36534848
  atomic energy  EATOM  =       579.39041991
  Solvation  Ediel_sol  =         0.00000000
  ---------------------------------------------------
  free energy    TOTEN  =       -11.56142636 eV

  energy without entropy =      -11.56142636  energy(sigma->0) =      -11.56142636


--------------------------------------------------------------------------------------------------------




--------------------------------------- Iteration      1(  14)  ---------------------------------------


    POTLOK:  cpu time      0.0172: real time      0.0173
    SETDIJ:  cpu time      0.0012: real time      0.0012
     EDDAV:  cpu time      0.2170: real time      0.2178
       DOS:  cpu time      0.0004: real time      0.0004
    CHARGE:  cpu time      0.0293: real time      0.0295
    MIXING:  cpu time      0.0007: real time      0.0007
    --------------------------------------------
      LOOP:  cpu time      0.2658: real time      0.2670

 eigenvalue-minimisations  :   192
 total energy-change (2. order) :-0.5554344E-03  (-0.5360168E-05)
 number of electron      10.0000040 magnetization 
 augmentation part        0.7768277 magnetization 

 Broyden mixing:
  rms(total) = 0.27941E-03    rms(broyden)= 0.27927E-03
  rms(prec ) = 0.62444E-03
  weight for this iteration     100.00

 eigenvalues of (default mixing * dielectric matrix)
  average eigenvalue GAMMA=   2.4543
  7.1357  3.8704  0.8834  0.9956  1.0196  2.5014  2.2144  1.8655  1.6026

 Free energy of the ion-electron system (eV)
  ---------------------------------------------------
  alpha Z        PSCENC =         0.43695755
  Ewald energy   TEWEN  =       157.95709055
  -Hartree energ DENC   =      -626.20512326
  -exchange      EXHF   =         0.00000000
  -V(xc)+E(xc)   XCENC  =        42.13562687
  PAW double counting   =      1211.40069029    -1214.31076965
  entropy T*S    EENTRO =        -0.00000000
  eigenvalues    EBANDS =      -162.36687405
  atomic energy  EATOM  =       579.39041991
  Solvation  Ediel_sol  =         0.00000000
  ---------------------------------------------------
  free energy    TOTEN  =       -11.56198180 eV

  energy without entropy =      -11.56198180  energy(sigma->0) =      -11.56198180


--------------------------------------------------------------------------------------------------------




--------------------------------------- Iteration      1(  15)  ---------------------------------------


    POTLOK:  cpu time      0.0172: real time      0.0172
    SETDIJ:  cpu time      0.0012: real time      0.0013
     EDDAV:  cpu time      0.2166: real time      0.2174
       DOS:  cpu time      0.0004: real time      0.0004
    CHARGE:  cpu time      0.0291: real time      0.0292
    MIXING:  cpu time      0.0007: real time      0.0007
    --------------------------------------------
      LOOP:  cpu time      0.2652: real time      0.2662

 eigenvalue-minimisations  :   192
 total energy-change (2. order) :-0.1439426E-03  (-0.7210527E-06)
 number of electron      10.0000040 magnetization 
 augmentation part        0.7768369 magnetization 

 Broyden mixing:
  rms(total) = 0.13268E-03    rms(broyden)= 0.13266E-03
  rms(prec ) = 0.28458E-03
  weight for this iteration     100.00

 eigenvalues of (default mixing * dielectric matrix)
  average eigenvalue GAMMA=   2.5541
  8.0293  4.3777  2.8926  2.4635  2.1020  1.6196  0.8833  0.9987  1.0207  1.1535

 Free energy of the ion-electron system (eV)
  ---------------------------------------------------
  alpha Z        PSCENC =         0.43695755
  Ewald energy   TEWEN  =       157.95709055
  -Hartree energ DENC   =      -626.19523136
  -exchange      EXHF   =         0.00000000
  -V(xc)+E(xc)   XCENC  =        42.13501367
  PAW double counting   =      1211.43776125    -1214.34763138
  entropy T*S    EENTRO =        -0.00000000
  eigenvalues    EBANDS =      -162.37650592
  atomic energy  EATOM  =       579.39041991
  Solvation  Ediel_sol  =         0.00000000
  ---------------------------------------------------
  free energy    TOTEN  =       -11.56212574 eV

  energy without entropy =      -11.56212574  energy(sigma->0) =      -11.56212574


--------------------------------------------------------------------------------------------------------




--------------------------------------- Iteration      1(  16)  ---------------------------------------


    POTLOK:  cpu time      0.0176: real time      0.0177
    SETDIJ:  cpu time      0.0012: real time      0.0012
     EDDAV:  cpu time      0.2164: real time      0.2173
       DOS:  cpu time      0.0004: real time      0.0004
    CHARGE:  cpu time      0.0300: real time      0.0301
    MIXING:  cpu time      0.0008: real time      0.0008
    --------------------------------------------
      LOOP:  cpu time      0.2664: real time      0.2675

 eigenvalue-minimisations  :   192
 total energy-change (2. order) :-0.4886463E-04  (-0.1821166E-06)
 number of electron      10.0000040 magnetization 
 augmentation part        0.7768352 magnetization 

 Broyden mixing:
  rms(total) = 0.82891E-04    rms(broyden)= 0.82875E-04
  rms(prec ) = 0.12771E-03
  weight for this iteration     100.00

 eigenvalues of (default mixing * dielectric matrix)
  average eigenvalue GAMMA=   2.6712
  8.4501  5.0507  3.3984  2.5588  2.3440  2.0632  1.6156  0.8832  1.0334  0.9927
  0.9927

 Free energy of the ion-electron system (eV)
  ---------------------------------------------------
  alpha Z        PSCENC =         0.43695755
  Ewald energy   TEWEN  =       157.95709055
  -Hartree energ DENC   =      -626.19272317
  -exchange      EXHF   =         0.00000000
  -V(xc)+E(xc)   XCENC  =        42.13490830
  PAW double counting   =      1211.30176081    -1214.21149437
  entropy T*S    EENTRO =        -0.00000000
  eigenvalues    EBANDS =      -162.37909419
  atomic energy  EATOM  =       579.39041991
  Solvation  Ediel_sol  =         0.00000000
  ---------------------------------------------------
  free energy    TOTEN  =       -11.56217460 eV

  energy without entropy =      -11.56217460  energy(sigma->0) =      -11.56217460


--------------------------------------------------------------------------------------------------------




--------------------------------------- Iteration      1(  17)  ---------------------------------------


    POTLOK:  cpu time      0.0180: real time      0.0181
    SETDIJ:  cpu time      0.0013: real time      0.0013
     EDDAV:  cpu time      0.1175: real time      0.1180
       DOS:  cpu time      0.0004: real time      0.0004
    CHARGE:  cpu time      0.0295: real time      0.0296
    MIXING:  cpu time      0.0008: real time      0.0008
    --------------------------------------------
      LOOP:  cpu time      0.1674: real time      0.1681

 eigenvalue-minimisations  :   128
 total energy-change (2. order) :-0.1322318E-04  (-0.6320588E-07)
 number of electron      10.0000040 magnetization 
 augmentation part        0.7768350 magnetization 

 Broyden mixing:
  rms(total) = 0.23650E-04    rms(broyden)= 0.23642E-04
  rms(prec ) = 0.36187E-04
  weight for this iteration     100.00

 eigenvalues of (default mixing * dielectric matrix)
  average eigenvalue GAMMA=   2.6392
  8.6837  5.2517  3.6603  2.6572  2.4721  1.9997  1.6132  0.8832  1.0365  0.9923
  0.9923  1.4284

 Free energy of the ion-electron system (eV)
  ---------------------------------------------------
  alpha Z        PSCENC =         0.43695755
  Ewald energy   TEWEN  =       157.95709055
  -Hartree energ DENC   =      -626.19355168
  -exchange      EXHF   =         0.00000000
  -V(xc)+E(xc)   XCENC  =        42.13497616
  PAW double counting   =      1211.27943362    -1214.18932288
  entropy T*S    EENTRO =        -0.00000000
  eigenvalues    EBANDS =      -162.37819105
  atomic energy  EATOM  =       579.39041991
  Solvation  Ediel_sol  =         0.00000000
  ---------------------------------------------------
  free energy    TOTEN  =       -11.56218783 eV

  energy without entropy =      -11.56218783  energy(sigma->0) =      -11.56218783


--------------------------------------------------------------------------------------------------------




--------------------------------------- Iteration      1(  18)  ---------------------------------------


    POTLOK:  cpu time      0.0183: real time      0.0184
    SETDIJ:  cpu time      0.0012: real time      0.0012
     EDDAV:  cpu time      0.2167: real time      0.2176
       DOS:  cpu time      0.0006: real time      0.0013
    CHARGE:  cpu time      0.0293: real time      0.0295
    MIXING:  cpu time      0.0009: real time      0.0009
    --------------------------------------------
      LOOP:  cpu time      0.2670: real time      0.2688

 eigenvalue-minimisations  :   192
 total energy-change (2. order) :-0.1477990E-05  (-0.4144589E-08)
 number of electron      10.0000040 magnetization 
 augmentation part        0.7768354 magnetization 

 Broyden mixing:
  rms(total) = 0.12430E-04    rms(broyden)= 0.12429E-04
  rms(prec ) = 0.19786E-04
  weight for this iteration     100.00

 eigenvalues of (default mixing * dielectric matrix)
  average eigenvalue GAMMA=   2.6626
  8.7193  5.5133  3.9380  3.0178  2.5070  2.3776  2.0385  1.6167  0.8832  1.0314
  1.0015  0.9845  0.9845

 Free energy of the ion-electron system (eV)
  ---------------------------------------------------
  alpha Z        PSCENC =         0.43695755
  Ewald energy   TEWEN  =       157.95709055
  -Hartree energ DENC   =      -626.19354331
  -exchange      EXHF   =         0.00000000
  -V(xc)+E(xc)   XCENC  =        42.13497142
  PAW double counting   =      1211.31122217    -1214.22111603
  entropy T*S    EENTRO =        -0.00000000
  eigenvalues    EBANDS =      -162.37819156
  atomic energy  EATOM  =       579.39041991
  Solvation  Ediel_sol  =         0.00000000
  ---------------------------------------------------
  free energy    TOTEN  =       -11.56218930 eV

  energy without entropy =      -11.56218930  energy(sigma->0) =      -11.56218930


--------------------------------------------------------------------------------------------------------




--------------------------------------- Iteration      1(  19)  ---------------------------------------


    POTLOK:  cpu time      0.0180: real time      0.0183
    SETDIJ:  cpu time      0.0012: real time      0.0013
     EDDAV:  cpu time      0.1166: real time      0.1171
       DOS:  cpu time      0.0003: real time      0.0006
    --------------------------------------------
      LOOP:  cpu time      0.1361: real time      0.1372

 eigenvalue-minimisations  :   128
 total energy-change (2. order) :-0.5842970E-06  (-0.2408655E-08)
 number of electron      10.0000040 magnetization 
 augmentation part        0.7768354 magnetization 

 Free energy of the ion-electron system (eV)
  ---------------------------------------------------
  alpha Z        PSCENC =         0.43695755
  Ewald energy   TEWEN  =       157.95709055
  -Hartree energ DENC   =      -626.19364628
  -exchange      EXHF   =         0.00000000
  -V(xc)+E(xc)   XCENC  =        42.13497536
  PAW double counting   =      1211.31479550    -1214.22467011
  entropy T*S    EENTRO =        -0.00000000
  eigenvalues    EBANDS =      -162.37811237
  atomic energy  EATOM  =       579.39041991
  Solvation  Ediel_sol  =         0.00000000
  ---------------------------------------------------
  free energy    TOTEN  =       -11.56218989 eV

  energy without entropy =      -11.56218989  energy(sigma->0) =      -11.56218989


--------------------------------------------------------------------------------------------------------




 average (electrostatic) potential at core
  the test charge radii are     0.7215  0.6991
  (the norm of the test charge is              1.0000)
       1 -84.7465       2 -61.3953



 E-fermi :  -7.3773     XC(G=0):  -0.6225     alpha+bet : -0.1751

 Fermi energy:        -7.3773236979

 k-point     1 :       0.0000    0.0000    0.0000
  band No.  band energies     occupation 
      1     -31.9209      2.00000
      2     -13.7807      2.00000
      3     -13.5354      2.00000
      4     -13.5354      2.00000
      5      -8.4166      2.00000
      6      -0.1958      0.00000
      7      -0.0914      0.00000
      8      -0.0914      0.00000
      9       1.0992      0.00000
     10       1.2458      0.00000
     11       1.2458      0.00000
     12       1.3180      0.00000
     13       1.3272      0.00000
     14       1.4582      0.00000
     15       2.5432      0.00000
     16       2.5592      0.00000
     17       2.5592      0.00000
     18       2.6065      0.00000
     19       2.8176      0.00000
     20       2.8537      0.00000
     21       2.8973      0.00000
     22       2.8973      0.00000
     23       2.9104      0.00000
     24       2.9563      0.00000
     25       2.9563      0.00000
     26       3.2154      0.00000
     27       4.1586      0.00000
     28       4.2406      0.00000
     29       4.2592      0.00000
     30       4.2592      0.00000
     31       4.3279      0.00000
     32       4.4343      0.00000
     33       4.4343      0.00000
     34       4.5633      0.00000
     35       5.0871      0.00000
     36       5.2690      0.00000
     37       5.6656      0.00000
     38       5.6656      0.00000
     39       5.7445      0.00000
     40       6.1343      0.00000
     41       6.4949      0.00000
     42       6.7697      0.00000
     43       6.7865      0.00000
     44       6.9906      0.00000
     45       6.9945      0.00000
     46       6.9945      0.00000
     47       7.0732      0.00000
     48       7.0732      0.00000
     49       7.1472      0.00000
     50       7.2052      0.00000
     51       7.2052      0.00000
     52       7.3145      0.00000
     53       7.3145      0.00000
     54       7.3395      0.00000
     55       7.3683      0.00000
     56       7.3808      0.00000
     57       7.4429      0.00000
     58       7.4429      0.00000
     59       7.4682      0.00000
     60       7.4724      0.00000
     61       7.4724      0.00000
     62       7.4891      0.00000
     63       7.5173      0.00000
     64       8.0702      0.00000


--------------------------------------------------------------------------------------------------------


 soft charge-density along one line, spin component           1
         0         1         2         3         4         5         6         7         8         9
 total charge-density along one line

 pseudopotential strength for first ion, spin component:           1
 14.397 -17.686   0.000  -0.287  -0.000  -0.000   0.364   0.000
-17.686  21.761  -0.000   0.362   0.000   0.000  -0.460  -0.000
  0.000  -0.000 -11.139   0.000  -0.000  13.896  -0.000   0.000
 -0.287   0.362   0.000 -11.614  -0.000  -0.000  14.525   0.000
 -0.000   0.000  -0.000  -0.000 -11.139   0.000   0.000  13.896
 -0.000   0.000  13.896  -0.000   0.000 -17.283   0.000  -0.000
  0.364  -0.460  -0.000  14.525   0.000   0.000 -18.119  -0.000
  0.000  -0.000   0.000   0.000  13.896  -0.000  -0.000 -17.283
 total augmentation occupancy for first ion, spin component:           1
  3.429   0.757  -0.000   0.846   0.000   0.000   0.309  -0.000
  0.757   0.266   0.000   0.539   0.000  -0.000   0.155   0.000
 -0.000   0.000   2.209   0.000   0.000   0.305   0.000   0.000
  0.846   0.539   0.000   2.968   0.000  -0.000   0.435   0.000
  0.000   0.000   0.000   0.000   2.209   0.000   0.000   0.305
  0.000  -0.000   0.305  -0.000   0.000   0.042  -0.000   0.000
  0.309   0.155   0.000   0.435   0.000  -0.000   0.106   0.000
 -0.000   0.000   0.000   0.000   0.305   0.000   0.000   0.042


------------------------ aborting loop because EDIFF is reached ----------------------------------------


    CHARGE:  cpu time      0.0293: real time      0.0295
    FORLOC:  cpu time      0.0004: real time      0.0004
    FORNL :  cpu time      0.0026: real time      0.0026
    STRESS:  cpu time      0.0829: real time      0.0833
    FORCOR:  cpu time      0.0116: real time      0.0118
    FORHAR:  cpu time      0.0030: real time      0.0030
    MIXING:  cpu time      0.0008: real time      0.0008
    OFIELD:  cpu time      0.0000: real time      0.0000

  FORCE on cell =-STRESS in cart. coord.  units (eV):
  Direction    XX          YY          ZZ          XY          YZ          ZX
  --------------------------------------------------------------------------------------
  Alpha Z     0.43696     0.43696     0.43696
  Ewald     -68.42418   -68.42418   294.80541     0.00000     0.00000     0.00000
  Hartree   174.69473   174.69473   276.80391    -0.00000    -0.00000    -0.00000
  E(xc)     -45.82669   -45.82669   -44.70537    -0.00000    -0.00000     0.00000
  Local    -246.87260  -246.87260  -644.53587    -0.00000     0.00000    -0.00000
  n-local   -21.51253   -21.51253   -35.18731    -0.00000    -0.00000    -0.00000
  augment     6.80199     6.80199     3.31542    -0.00000     0.00000    -0.00000
  Kinetic   199.88781   199.88781   189.63612    -0.00000     0.00000     0.00000
  Fock        0.00000     0.00000     0.00000     0.00000     0.00000     0.00000
  -------------------------------------------------------------------------------------
  Total      -0.81452    -0.81452    40.56927    -0.00000     0.00000     0.00000
  in kB      -1.30500    -1.30500    64.99917    -0.00000     0.00000     0.00000
  external pressure =       20.80 kB  Pullay stress =        0.00 kB


 VOLUME and BASIS-vectors are now :
 -----------------------------------------------------------------------------
  energy-cutoff  :      400.00
  volume of cell :     1000.00
      direct lattice vectors                 reciprocal lattice vectors
    10.000000000  0.000000000  0.000000000     0.100000000  0.000000000  0.000000000
     0.000000000 10.000000000  0.000000000     0.000000000  0.100000000  0.000000000
     0.000000000  0.000000000 10.000000000     0.000000000  0.000000000  0.100000000

  length of vectors
    10.000000000 10.000000000 10.000000000     0.100000000  0.100000000  0.100000000


 FORCES acting on ions
    electron-ion (+dipol)            ewald-force                    non-local-force                 convergence-correction
 -----------------------------------------------------------------------------------------------
   0.780E-15 -.330E-12 0.258E+03   -.463E-16 -.184E-16 -.377E+03   0.000E+00 -.323E-26 0.753E+02   0.216E-13 0.142E-13 0.340E-04
   -.529E-15 0.290E-12 -.306E+03   0.263E-16 0.413E-16 0.377E+03   0.323E-26 -.303E-26 -.277E+02   0.810E-14 0.160E-13 -.549E-04
 -----------------------------------------------------------------------------------------------
   0.252E-15 -.396E-13 -.475E+02   -.199E-16 0.228E-16 0.000E+00   0.323E-26 -.626E-26 0.475E+02   0.297E-13 0.302E-13 -.209E-04


 POSITION                                       TOTAL-FORCE (eV/Angst)
 -----------------------------------------------------------------------------------
      0.00000      0.00000      0.17209        -0.000000      0.000000    -43.187259
      0.00000      0.00000      1.12791         0.000000     -0.000000     43.187259
 -----------------------------------------------------------------------------------
    total drift:                                0.000000     -0.000000      0.014904


--------------------------------------------------------------------------------------------------------



  FREE ENERGIE OF THE ION-ELECTRON SYSTEM (eV)
  ---------------------------------------------------
  free  energy   TOTEN  =       -11.56218989 eV

  energy  without entropy=      -11.56218989  energy(sigma->0) =      -11.56218989



--------------------------------------------------------------------------------------------------------


    POTLOK:  cpu time      0.0198: real time      0.0199


--------------------------------------------------------------------------------------------------------


 stress matrix after NEB project (eV)
     -0.81452      0.00000      0.00000
     -0.00000     -0.81452     -0.00000
      0.00000      0.00000     40.56927
  FORCES: max atom, RMS    43.187259   43.187259
  FORCE total and by dimension   61.076008   43.187259
  Stress total and by dimension   40.585620   40.569271
 Finite differences:
   Step               POTIM =    2.0000000000000000E-002
   Degrees of freedom DOF   =            6
  LATTYP: Found a simple cubic cell.
 ALAT       =    10.0000000000
  
  Lattice vectors:
  
 A1 = (  10.0000000000,   0.0000000000,   0.0000000000)
 A2 = (   0.0000000000,  10.0000000000,   0.0000000000)
 A3 = (   0.0000000000,   0.0000000000,  10.0000000000)


Analysis of symmetry for initial positions (statically):
=====================================================================
 Subroutine PRICEL returns:
 Original cell was already a primitive cell.
 

 Routine SETGRP: Setting up the symmetry group for a 
 simple cubic supercell.


 Subroutine GETGRP returns: Found  2 space group operations
 (whereof  2 operations were pure point group operations)
 out of a pool of 48 trial point group operations.


The static configuration has the point symmetry C_1h.


Analysis of symmetry for dynamics (positions and initial velocities):
=====================================================================
 Subroutine PRICEL returns:
 Original cell was already a primitive cell.
 

 Routine SETGRP: Setting up the symmetry group for a 
 simple cubic supercell.


 Subroutine GETGRP returns: Found  2 space group operations
 (whereof  2 operations were pure point group operations)
 out of a pool of 48 trial point group operations.


The dynamic configuration has the point symmetry C_1h.


 Subroutine INISYM returns: Found  2 space group operations
 (whereof  2 operations are pure point group operations),
 and found     1 'primitive' translations


 KPOINTS: Gamma-point only                        

Automatic generation of k-mesh.
 Grid dimensions read from file:
 generate k-points for:    1    1    1

 Generating k-lattice:

  Cartesian coordinates                     Fractional coordinates (reciprocal lattice)
     0.100000000  0.000000000  0.000000000     1.000000000  0.000000000  0.000000000
     0.000000000  0.100000000  0.000000000     0.000000000  1.000000000  0.000000000
     0.000000000  0.000000000  0.100000000     0.000000000  0.000000000  1.000000000

  Length of vectors
     0.100000000  0.100000000  0.100000000

  Shift w.r.t. Gamma in fractional coordinates (k-lattice)
     0.000000000  0.000000000  0.000000000

 
 Subroutine IBZKPT returns following result:
 ===========================================
 
 Found      1 irreducible k-points:
 
 Following reciprocal coordinates:
            Coordinates               Weight
  0.000000  0.000000  0.000000      1.000000
 
 Following cartesian coordinates:
            Coordinates               Weight
  0.000000  0.000000  0.000000      1.000000
 
    WAVPRE:  cpu time      1.1918: real time      1.2551
    FEWALD:  cpu time      0.0003: real time      0.0003
    ORTHCH:  cpu time      0.0064: real time      0.0065
     LOOP+:  cpu time      5.6902: real time      5.7799


--------------------------------------- Ionic step        2  -------------------------------------------




--------------------------------------- Iteration      2(   1)  ---------------------------------------


    POTLOK:  cpu time      0.0184: real time      0.0187
    SETDIJ:  cpu time      0.0013: real time      0.0013
     EDDAV:  cpu time      0.1174: real time      0.1180
       DOS:  cpu time      0.0004: real time      0.0010
    CHARGE:  cpu time      0.0285: real time      0.0286
    MIXING:  cpu time      0.0009: real time      0.0009
    --------------------------------------------
      LOOP:  cpu time      0.1668: real time      0.1686

 eigenvalue-minimisations  :   128
 total energy-change (2. order) :-0.9960880E-02  (-0.2365303E+00)
 number of electron      10.0000018 magnetization 
 augmentation part        0.7767097 magnetization 

 Broyden mixing:
  rms(total) = 0.35416E-01    rms(broyden)= 0.34937E-01
  rms(prec ) = 0.39336E-01
  weight for this iteration     100.00

 Free energy of the ion-electron system (eV)
  ---------------------------------------------------
  alpha Z        PSCENC =         0.43695755
  Ewald energy   TEWEN  =       157.87824079
  -Hartree energ DENC   =      -626.14157924
  -exchange      EXHF   =         0.00000000
  -V(xc)+E(xc)   XCENC  =        42.13283141
  PAW double counting   =      1211.30855074    -1214.21842469
  entropy T*S    EENTRO =        -0.00000000
  eigenvalues    EBANDS =      -162.35914665
  atomic energy  EATOM  =       579.39041991
  Solvation  Ediel_sol  =         0.00000000
  ---------------------------------------------------
  free energy    TOTEN  =       -11.57215018 eV

  energy without entropy =      -11.57215018  energy(sigma->0) =      -11.57215018


--------------------------------------------------------------------------------------------------------




--------------------------------------- Iteration      2(   2)  ---------------------------------------


    POTLOK:  cpu time      0.0180: real time      0.0184
    SETDIJ:  cpu time      0.0012: real time      0.0013
     EDDAV:  cpu time      0.1199: real time      0.1204
       DOS:  cpu time      0.0004: real time      0.0010
    CHARGE:  cpu time      0.0275: real time      0.0276
    MIXING:  cpu time      0.0004: real time      0.0004
    --------------------------------------------
      LOOP:  cpu time      0.1674: real time      0.1691

 eigenvalue-minimisations  :   128
 total energy-change (2. order) : 0.1080628E-02  (-0.7817291E-03)
 number of electron      10.0000018 magnetization 
 augmentation part        0.7766770 magnetization 

 Broyden mixing:
  rms(total) = 0.19909E-01    rms(broyden)= 0.19885E-01
  rms(prec ) = 0.22166E-01
  weight for this iteration     100.00

 eigenvalues of (default mixing * dielectric matrix)
  average eigenvalue GAMMA=   2.2114
  2.2114

 Free energy of the ion-electron system (eV)
  ---------------------------------------------------
  alpha Z        PSCENC =         0.43695755
  Ewald energy   TEWEN  =       157.87824079
  -Hartree energ DENC   =      -626.13772932
  -exchange      EXHF   =         0.00000000
  -V(xc)+E(xc)   XCENC  =        42.13286872
  PAW double counting   =      1211.05394801    -1213.96360060
  entropy T*S    EENTRO =        -0.00000000
  eigenvalues    EBANDS =      -162.36217461
  atomic energy  EATOM  =       579.39041991
  Solvation  Ediel_sol  =         0.00000000
  ---------------------------------------------------
  free energy    TOTEN  =       -11.57106956 eV

  energy without entropy =      -11.57106956  energy(sigma->0) =      -11.57106956


--------------------------------------------------------------------------------------------------------




--------------------------------------- Iteration      2(   3)  ---------------------------------------


    POTLOK:  cpu time      0.0178: real time      0.0182
    SETDIJ:  cpu time      0.0013: real time      0.0013
     EDDAV:  cpu time      0.1179: real time      0.1184
       DOS:  cpu time      0.0004: real time      0.0010
    CHARGE:  cpu time      0.0281: real time      0.0283
    MIXING:  cpu time      0.0006: real time      0.0006
    --------------------------------------------
      LOOP:  cpu time      0.1661: real time      0.1677

 eigenvalue-minimisations  :   128
 total energy-change (2. order) :-0.4124024E-04  (-0.1606862E-03)
 number of electron      10.0000018 magnetization 
 augmentation part        0.7766298 magnetization 

 Broyden mixing:
  rms(total) = 0.23122E-02    rms(broyden)= 0.23072E-02
  rms(prec ) = 0.28399E-02
  weight for this iteration     100.00

 eigenvalues of (default mixing * dielectric matrix)
  average eigenvalue GAMMA=   1.6168
  1.0805  2.1532

 Free energy of the ion-electron system (eV)
  ---------------------------------------------------
  alpha Z        PSCENC =         0.43695755
  Ewald energy   TEWEN  =       157.87824079
  -Hartree energ DENC   =      -626.14044550
  -exchange      EXHF   =         0.00000000
  -V(xc)+E(xc)   XCENC  =        42.13292485
  PAW double counting   =      1210.87488346    -1213.78401885
  entropy T*S    EENTRO =        -0.00000000
  eigenvalues    EBANDS =      -162.36007300
  atomic energy  EATOM  =       579.39041991
  Solvation  Ediel_sol  =         0.00000000
  ---------------------------------------------------
  free energy    TOTEN  =       -11.57111080 eV

  energy without entropy =      -11.57111080  energy(sigma->0) =      -11.57111080


--------------------------------------------------------------------------------------------------------




--------------------------------------- Iteration      2(   4)  ---------------------------------------


    POTLOK:  cpu time      0.0183: real time      0.0187
    SETDIJ:  cpu time      0.0013: real time      0.0013
     EDDAV:  cpu time      0.2209: real time      0.2217
       DOS:  cpu time      0.0004: real time      0.0010
    CHARGE:  cpu time      0.0280: real time      0.0281
    MIXING:  cpu time      0.0005: real time      0.0005
    --------------------------------------------
      LOOP:  cpu time      0.2695: real time      0.2713

 eigenvalue-minimisations  :   192
 total energy-change (2. order) :-0.6075320E-05  (-0.1393185E-04)
 number of electron      10.0000018 magnetization 
 augmentation part        0.7766720 magnetization 

 Broyden mixing:
  rms(total) = 0.13160E-02    rms(broyden)= 0.13150E-02
  rms(prec ) = 0.15390E-02
  weight for this iteration     100.00

 eigenvalues of (default mixing * dielectric matrix)
  average eigenvalue GAMMA=   1.6681
  1.1831  2.1397  1.6816

 Free energy of the ion-electron system (eV)
  ---------------------------------------------------
  alpha Z        PSCENC =         0.43695755
  Ewald energy   TEWEN  =       157.87824079
  -Hartree energ DENC   =      -626.13555136
  -exchange      EXHF   =         0.00000000
  -V(xc)+E(xc)   XCENC  =        42.13264412
  PAW double counting   =      1210.94383148    -1213.85288567
  entropy T*S    EENTRO =        -0.00000000
  eigenvalues    EBANDS =      -162.36477368
  atomic energy  EATOM  =       579.39041991
  Solvation  Ediel_sol  =         0.00000000
  ---------------------------------------------------
  free energy    TOTEN  =       -11.57111687 eV

  energy without entropy =      -11.57111687  energy(sigma->0) =      -11.57111687


--------------------------------------------------------------------------------------------------------




--------------------------------------- Iteration      2(   5)  ---------------------------------------


    POTLOK:  cpu time      0.0179: real time      0.0183
    SETDIJ:  cpu time      0.0013: real time      0.0013
     EDDAV:  cpu time      0.2221: real time      0.2230
       DOS:  cpu time      0.0004: real time      0.0010
    CHARGE:  cpu time      0.0279: real time      0.0280
    MIXING:  cpu time      0.0006: real time      0.0006
    --------------------------------------------
      LOOP:  cpu time      0.2701: real time      0.2721

 eigenvalue-minimisations  :   192
 total energy-change (2. order) :-0.4526999E-05  (-0.5506268E-06)
 number of electron      10.0000018 magnetization 
 augmentation part        0.7766524 magnetization 

 Broyden mixing:
  rms(total) = 0.34362E-03    rms(broyden)= 0.34349E-03
  rms(prec ) = 0.46539E-03
  weight for this iteration     100.00

[...]
 total energy-change (2. order) :-0.1409532E-04  (-0.7419168E-07)
 number of electron      10.0000037 magnetization 
 augmentation part        0.7931748 magnetization 

 Broyden mixing:
  rms(total) = 0.10441E-04    rms(broyden)= 0.10437E-04
  rms(prec ) = 0.23199E-04
  weight for this iteration     100.00

 eigenvalues of (default mixing * dielectric matrix)
  average eigenvalue GAMMA=   2.5705
  8.1091  4.4576  2.6816  2.4724  2.0291  0.8994  1.0250  1.0044  1.5972  1.4291

 Free energy of the ion-electron system (eV)
  ---------------------------------------------------
  alpha Z        PSCENC =         0.43695755
  Ewald energy   TEWEN  =       165.65630720
  -Hartree energ DENC   =      -631.71649658
  -exchange      EXHF   =         0.00000000
  -V(xc)+E(xc)   XCENC  =        42.35543087
  PAW double counting   =      1240.61178314    -1243.60029082
  entropy T*S    EENTRO =        -0.00000000
  eigenvalues    EBANDS =      -163.74867350
  atomic energy  EATOM  =       579.39041991
  Solvation  Ediel_sol  =         0.00000000
  ---------------------------------------------------
  free energy    TOTEN  =       -10.61456224 eV

  energy without entropy =      -10.61456224  energy(sigma->0) =      -10.61456224


--------------------------------------------------------------------------------------------------------




--------------------------------------- Iteration     13(  12)  ---------------------------------------


    POTLOK:  cpu time      0.0182: real time      0.0186
    SETDIJ:  cpu time      0.0012: real time      0.0013
     EDDAV:  cpu time      0.1189: real time      0.1197
       DOS:  cpu time      0.0010: real time      0.0016
    CHARGE:  cpu time      0.0279: real time      0.0280
    MIXING:  cpu time      0.0008: real time      0.0008
    --------------------------------------------
      LOOP:  cpu time      0.1681: real time      0.1699

 eigenvalue-minimisations  :   128
 total energy-change (2. order) :-0.1849816E-05  (-0.4074685E-08)
 number of electron      10.0000037 magnetization 
 augmentation part        0.7931748 magnetization 

 Broyden mixing:
  rms(total) = 0.61027E-05    rms(broyden)= 0.61015E-05
  rms(prec ) = 0.12020E-04
  weight for this iteration     100.00

 eigenvalues of (default mixing * dielectric matrix)
  average eigenvalue GAMMA=   2.7110
  8.5822  5.1738  3.4259  2.5500  2.5082  2.0058  1.5896  0.8992  1.0001  1.0428
  1.0428

 Free energy of the ion-electron system (eV)
  ---------------------------------------------------
  alpha Z        PSCENC =         0.43695755
  Ewald energy   TEWEN  =       165.65630720
  -Hartree energ DENC   =      -631.71606382
  -exchange      EXHF   =         0.00000000
  -V(xc)+E(xc)   XCENC  =        42.35541543
  PAW double counting   =      1240.60621348    -1243.59471517
  entropy T*S    EENTRO =        -0.00000000
  eigenvalues    EBANDS =      -163.74909867
  atomic energy  EATOM  =       579.39041991
  Solvation  Ediel_sol  =         0.00000000
  ---------------------------------------------------
  free energy    TOTEN  =       -10.61456409 eV

  energy without entropy =      -10.61456409  energy(sigma->0) =      -10.61456409


--------------------------------------------------------------------------------------------------------




--------------------------------------- Iteration     13(  13)  ---------------------------------------


    POTLOK:  cpu time      0.0188: real time      0.0192
    SETDIJ:  cpu time      0.0013: real time      0.0013
     EDDAV:  cpu time      0.1180: real time      0.1188
       DOS:  cpu time      0.0008: real time      0.0010
    --------------------------------------------
      LOOP:  cpu time      0.1389: real time      0.1403

 eigenvalue-minimisations  :   128
 total energy-change (2. order) :-0.9207583E-06  (-0.2501075E-08)
 number of electron      10.0000037 magnetization 
 augmentation part        0.7931748 magnetization 

 Free energy of the ion-electron system (eV)
  ---------------------------------------------------
  alpha Z        PSCENC =         0.43695755
  Ewald energy   TEWEN  =       165.65630720
  -Hartree energ DENC   =      -631.71603821
  -exchange      EXHF   =         0.00000000
  -V(xc)+E(xc)   XCENC  =        42.35542207
  PAW double counting   =      1240.60751230    -1243.59602283
  entropy T*S    EENTRO =        -0.00000000
  eigenvalues    EBANDS =      -163.74912300
  atomic energy  EATOM  =       579.39041991
  Solvation  Ediel_sol  =         0.00000000
  ---------------------------------------------------
  free energy    TOTEN  =       -10.61456501 eV

  energy without entropy =      -10.61456501  energy(sigma->0) =      -10.61456501


--------------------------------------------------------------------------------------------------------




 average (electrostatic) potential at core
  the test charge radii are     0.7215  0.6991
  (the norm of the test charge is              1.0000)
       1 -84.9708       2 -61.4996



 E-fermi :  -7.3507     XC(G=0):  -0.6268     alpha+bet : -0.1751

 Fermi energy:        -7.3506937709

 k-point     1 :       0.0000    0.0000    0.0000
  band No.  band energies     occupation 
      1     -32.1948      2.00000
      2     -13.7827      2.00000
      3     -13.7827      2.00000
      4     -13.7605      2.00000
      5      -8.3539      2.00000
      6      -0.1977      0.00000
      7       0.1006      0.00000
      8       0.1006      0.00000
      9       1.0954      0.00000
     10       1.2721      0.00000
     11       1.2721      0.00000
     12       1.3175      0.00000
     13       1.3259      0.00000
     14       1.4445      0.00000
     15       2.5408      0.00000
     16       2.5408      0.00000
     17       2.5417      0.00000
     18       2.6008      0.00000
     19       2.8169      0.00000
     20       2.8409      0.00000
     21       2.9025      0.00000
     22       2.9025      0.00000
     23       2.9105      0.00000
     24       2.9792      0.00000
     25       2.9792      0.00000
     26       3.1994      0.00000
     27       4.1462      0.00000
     28       4.2382      0.00000
     29       4.2480      0.00000
     30       4.2480      0.00000
     31       4.3214      0.00000
     32       4.4421      0.00000
     33       4.4421      0.00000
     34       4.5588      0.00000
     35       5.0942      0.00000
     36       5.2635      0.00000
     37       5.6595      0.00000
     38       5.6595      0.00000
     39       5.7401      0.00000
     40       6.1252      0.00000
     41       6.4997      0.00000
     42       6.7543      0.00000
     43       6.7750      0.00000
     44       6.9877      0.00000
     45       6.9922      0.00000
     46       6.9922      0.00000
     47       7.0596      0.00000
     48       7.0596      0.00000
     49       7.1481      0.00000
     50       7.1986      0.00000
     51       7.1986      0.00000
     52       7.3146      0.00000
     53       7.3146      0.00000
     54       7.3356      0.00000
     55       7.3642      0.00000
     56       7.3760      0.00000
     57       7.4412      0.00000
     58       7.4412      0.00000
     59       7.4676      0.00000
     60       7.4735      0.00000
     61       7.4735      0.00000
     62       7.4789      0.00000
     63       7.5232      0.00000
     64       8.0457      0.00000


--------------------------------------------------------------------------------------------------------


 soft charge-density along one line, spin component           1
         0         1         2         3         4         5         6         7         8         9
 total charge-density along one line

 pseudopotential strength for first ion, spin component:           1
 14.429 -17.727  -0.000  -0.312   0.000   0.000   0.396  -0.000
-17.727  21.813   0.000   0.394   0.000  -0.000  -0.500  -0.000
 -0.000   0.000 -11.157  -0.000  -0.000  13.921   0.000   0.000
 -0.312   0.394  -0.000 -11.691   0.000   0.000  14.627  -0.000
  0.000   0.000  -0.000   0.000 -11.157   0.000  -0.000  13.921
  0.000  -0.000  13.921   0.000   0.000 -17.315  -0.000  -0.000
  0.396  -0.500   0.000  14.627  -0.000  -0.000 -18.254   0.000
 -0.000  -0.000   0.000  -0.000  13.921  -0.000   0.000 -17.315
 total augmentation occupancy for first ion, spin component:           1
  3.441   0.758   0.000   0.817   0.000  -0.000   0.294   0.000
  0.758   0.266   0.000   0.511   0.000   0.000   0.152   0.000
  0.000   0.000   2.234  -0.000   0.000   0.312   0.000   0.000
  0.817   0.511  -0.000   2.930   0.000   0.000   0.406   0.000
  0.000   0.000   0.000   0.000   2.234  -0.000   0.000   0.312
 -0.000   0.000   0.312   0.000  -0.000   0.044  -0.000   0.000
  0.294   0.152   0.000   0.406   0.000  -0.000   0.103   0.000
  0.000   0.000   0.000   0.000   0.312   0.000   0.000   0.044


------------------------ aborting loop because EDIFF is reached ----------------------------------------


    CHARGE:  cpu time      0.0281: real time      0.0282
    FORLOC:  cpu time      0.0004: real time      0.0004
    FORNL :  cpu time      0.0026: real time      0.0026
    STRESS:  cpu time      0.0839: real time      0.0842
    FORCOR:  cpu time      0.0118: real time      0.0118
    FORHAR:  cpu time      0.0032: real time      0.0032
    MIXING:  cpu time      0.0007: real time      0.0007
    OFIELD:  cpu time      0.0000: real time      0.0000

  FORCE on cell =-STRESS in cart. coord.  units (eV):
  Direction    XX          YY          ZZ          XY          YZ          ZX
  --------------------------------------------------------------------------------------
  Alpha Z     0.43696     0.43696     0.43696
  Ewald     -68.41092   -68.41092   302.47809     0.00000     0.00000     0.00000
  Hartree   176.86096   176.86096   277.99404    -0.00000    -0.00000    -0.00000
  E(xc)     -46.06408   -46.06408   -44.94400    -0.00000    -0.00000     0.00000
  Local    -249.63001  -249.63001  -647.03881     0.00000     0.00000    -0.00000
  n-local   -21.94039   -21.94039   -35.81954    -0.00000    -0.00000    -0.00000
  augment     6.91565     6.91565     2.92309     0.00000     0.00000     0.00000
  Kinetic   201.00540   201.00540   191.70892    -0.00000     0.00000    -0.00000
  Fock        0.00000     0.00000     0.00000     0.00000     0.00000     0.00000
  -------------------------------------------------------------------------------------
  Total      -0.82643    -0.82643    47.73875     0.00000    -0.00000     0.00000
  in kB      -1.32408    -1.32408    76.48594     0.00000    -0.00000     0.00000
  external pressure =       24.61 kB  Pullay stress =        0.00 kB


 VOLUME and BASIS-vectors are now :
 -----------------------------------------------------------------------------
  energy-cutoff  :      400.00
  volume of cell :     1000.00
      direct lattice vectors                 reciprocal lattice vectors
    10.000000000  0.000000000  0.000000000     0.100000000  0.000000000  0.000000000
     0.000000000 10.000000000  0.000000000     0.000000000  0.100000000  0.000000000
     0.000000000  0.000000000 10.000000000     0.000000000  0.000000000  0.100000000

  length of vectors
    10.000000000 10.000000000 10.000000000     0.100000000  0.100000000  0.100000000


 FORCES acting on ions
    electron-ion (+dipol)            ewald-force                    non-local-force                 convergence-correction
 -----------------------------------------------------------------------------------------------
   0.230E-14 0.682E-13 0.264E+03   -.104E-17 0.706E-16 -.393E+03   0.258E-25 -.384E-25 0.773E+02   0.312E-13 -.915E-08 -.847E-05
   -.490E-15 0.400E-13 -.314E+03   -.189E-16 -.477E-16 0.393E+03   0.129E-25 -.889E-26 -.277E+02   0.171E-13 -.973E-08 0.923E-05
 -----------------------------------------------------------------------------------------------
   0.181E-14 0.108E-12 -.496E+02   -.199E-16 0.228E-16 0.000E+00   0.388E-25 -.473E-25 0.496E+02   0.483E-13 -.189E-07 0.763E-06


 POSITION                                       TOTAL-FORCE (eV/Angst)
 -----------------------------------------------------------------------------------
      0.00000      0.00000      0.17209        -0.000000      0.000000    -51.747786
      0.00000      0.00000      1.10791         0.000000     -0.000000     51.747786
 -----------------------------------------------------------------------------------
    total drift:                                0.000000     -0.000000      0.012418


--------------------------------------------------------------------------------------------------------



  FREE ENERGIE OF THE ION-ELECTRON SYSTEM (eV)
  ---------------------------------------------------
  free  energy   TOTEN  =       -10.61456501 eV

  energy  without entropy=      -10.61456501  energy(sigma->0) =      -10.61456501

 d Force =-0.1748326E+01[-0.207E+01,-0.143E+01]  d Energy =-0.1734694E+01-0.136E-01
 d Force =-0.1509431E+02[-0.157E+02,-0.145E+02]  d Ewald  =-0.1508105E+02-0.133E-01


--------------------------------------------------------------------------------------------------------


    POTLOK:  cpu time      0.0202: real time      0.0203


--------------------------------------------------------------------------------------------------------


 stress matrix after NEB project (eV)
     -0.82643      0.00000      0.00000
      0.00000     -0.82643      0.00000
      0.00000     -0.00000     47.73875
  FORCES: max atom, RMS    51.747786   51.747786
  FORCE total and by dimension   73.182421   51.747786
  Stress total and by dimension   47.753053   47.738748
 Finite differences progress:
  Degree of freedom:   6/  6
  Displacement:        2/  2
  Total:              12/ 12

 SECOND DERIVATIVES (NOT SYMMETRIZED)
 ------------------------------------
               1X          1Y          1Z          2X          2Y          2Z 
  1X    44.921360   -0.000000    0.000546  -44.921360    0.000000   -0.000546
  1Y    -0.000000   44.921122    0.000541    0.000000  -44.921122   -0.000541
  1Z    -0.000000   -0.000000 -401.866563    0.000000    0.000000  401.866563
  2X   -45.068299    0.000000   -0.000200   45.068299   -0.000000    0.000200
  2Y    -0.000000  -45.068293   -0.000308    0.000000   45.068293    0.000308
  2Z    -0.000000    0.000000  401.981536    0.000000   -0.000000 -401.981536


 Eigenvectors and eigenvalues of the dynamical matrix
 ----------------------------------------------------


   1 f  =  119.658038 THz   751.833628 2PiTHz 3991.362529 cm-1   494.865661 meV
             X         Y         Z           dx          dy          dz
      0.000000  0.000000  0.172090     0.000000    0.000000   -0.654772  
      0.000000  0.000000  1.127910    -0.000000   -0.000000    0.755827  

   2 f  =    0.032400 THz     0.203576 2PiTHz    1.080751 cm-1     0.133996 meV
             X         Y         Z           dx          dy          dz
      0.000000  0.000000  0.172090     0.000094   -0.756310    0.000098  
      0.000000  0.000000  1.127910     0.000081   -0.654213    0.000085  

   3 f  =    0.032349 THz     0.203255 2PiTHz    1.079048 cm-1     0.133785 meV
             X         Y         Z           dx          dy          dz
      0.000000  0.000000  0.172090    -0.756309   -0.000094    0.000146  
      0.000000  0.000000  1.127910    -0.654214   -0.000081    0.000127  

   4 f/i=    0.008470 THz     0.053218 2PiTHz    0.282524 cm-1     0.035029 meV
             X         Y         Z           dx          dy          dz
      0.000000  0.000000  0.172090    -0.000146   -0.000098   -0.755827  
      0.000000  0.000000  1.127910    -0.000127   -0.000085   -0.654772  

   5 f/i=   40.040260 THz   251.580371 2PiTHz 1335.599297 cm-1   165.593134 meV
             X         Y         Z           dx          dy          dz
      0.000000  0.000000  0.172090     0.000000   -0.654213   -0.000000  
      0.000000  0.000000  1.127910    -0.000001    0.756310    0.000000  

   6 f/i=   40.040306 THz   251.580665 2PiTHz 1335.600857 cm-1   165.593327 meV
             X         Y         Z           dx          dy          dz
      0.000000  0.000000  0.172090    -0.654214   -0.000000   -0.000000  
      0.000000  0.000000  1.127910     0.756309    0.000001    0.000000  

 Finite differences POTIM=   2.0000000000000000E-002
  LATTYP: Found a simple cubic cell.
 ALAT       =    10.0000000000
  
  Lattice vectors:
  
 A1 = (  10.0000000000,   0.0000000000,   0.0000000000)
 A2 = (   0.0000000000,  10.0000000000,   0.0000000000)
 A3 = (   0.0000000000,   0.0000000000,  10.0000000000)


Analysis of symmetry for initial positions (statically):
=====================================================================
 Subroutine PRICEL returns:
 Original cell was already a primitive cell.
 

 Routine SETGRP: Setting up the symmetry group for a 
 simple cubic supercell.


 Subroutine GETGRP returns: Found  8 space group operations
 (whereof  8 operations were pure point group operations)
 out of a pool of 48 trial point group operations.


The static configuration has the point symmetry C_4v.


Analysis of symmetry for dynamics (positions and initial velocities):
=====================================================================
 Subroutine PRICEL returns:
 Original cell was already a primitive cell.
 

 Routine SETGRP: Setting up the symmetry group for a 
 simple cubic supercell.


 Subroutine GETGRP returns: Found  8 space group operations
 (whereof  8 operations were pure point group operations)
 out of a pool of 48 trial point group operations.


The dynamic configuration has the point symmetry C_4v.


 Subroutine INISYM returns: Found  8 space group operations
 (whereof  8 operations are pure point group operations),
 and found     1 'primitive' translations


 KPOINTS: Gamma-point only                        

Automatic generation of k-mesh.
 Grid dimensions read from file:
 generate k-points for:    1    1    1

 Generating k-lattice:

  Cartesian coordinates                     Fractional coordinates (reciprocal lattice)
     0.100000000  0.000000000  0.000000000     1.000000000  0.000000000  0.000000000
     0.000000000  0.100000000  0.000000000     0.000000000  1.000000000  0.000000000
     0.000000000  0.000000000  0.100000000     0.000000000  0.000000000  1.000000000

  Length of vectors
     0.100000000  0.100000000  0.100000000

  Shift w.r.t. Gamma in fractional coordinates (k-lattice)
     0.000000000  0.000000000  0.000000000

 
 Subroutine IBZKPT returns following result:
 ===========================================
 
 Found      1 irreducible k-points:
 
 Following reciprocal coordinates:
            Coordinates               Weight
  0.000000  0.000000  0.000000      1.000000
 
 Following cartesian coordinates:
            Coordinates               Weight
  0.000000  0.000000  0.000000      1.000000
 
 writing wavefunctions
     LOOP+:  cpu time      3.4791: real time      3.5683
    4ORBIT:  cpu time      0.0000: real time      0.0000

 total amount of memory used by VASP MPI-rank0    40538. kBytes
=======================================================================

   base      :      30000. kBytes
   nonl-proj :       2887. kBytes
   fftplans  :       1180. kBytes
   grid      :       6176. kBytes
   one-center:          6. kBytes
   wavefun   :        289. kBytes

  
  
 General timing and accounting informations for this job:
 ========================================================
  
                  Total CPU time used (sec):       49.474
                            User time (sec):       48.005
                          System time (sec):        1.469
                         Elapsed time (sec):       52.359
  
                   Maximum memory used (kb):      136732.
                   Average memory used (kb):          N/A
  
                          Minor page faults:       420031
                          Major page faults:           53
                 Voluntary context switches:         5895
